Siesta Version:                                        siesta-3.2
Architecture  : x86_64-unknown-linux-gnu--unknown
Compiler flags: /opt/openmpi/bin/mpif90 -g -O2
PARALLEL version

* Running on   16 nodes in parallel
>> Start of run:   6-NOV-2017  14:48:18

                           ***********************       
                           *  WELCOME TO SIESTA  *       
                           ***********************       

reinit: Reading from standard input
************************** Dump of input data file ****************************
#General System Descriptors
SystemName              TCNQ
SystemLabel             TCNQ
LatticeConstant       1.0 Ang
%block LatticeVectors
   15.0000000       0.00000000       0.00000000
   0.00000000       25.0000000       0.00000000
   0.00000000       0.00000000       25.0000000
%endblock LatticeVectors
NumberOfAtoms 20
NumberOfSpecies 3
%block Chemical_Species_Label
 1   7    N
 2   6    C
 3   1    H
%endblock Chemical_Species_Label
AtomicCoordinatesFormat NotScaledCartesianAng
#AtomicCoordinatesFormat Fractional
%block AtomicCoordinatesAndAtomicSpecies
  6.972880    11.435030    16.834050  1  N
  7.540860     7.096270    17.034800  1  N
  7.332830    11.249060     8.490340  1  N
  7.906150     6.906870     8.530840  1  N
  7.257030    10.343450    13.388200  2  C
  7.317380    10.312210    11.992330  2  C
  7.382640     9.163780    14.155140  2  C
  7.572320     7.945440    13.459410  2  C
  7.632900     7.914000    12.055530  2  C
  7.506320     9.099740    11.292430  2  C
  7.321520     9.207780    15.524820  2  C
  7.563380     9.082620     9.922010  2  C
  7.127410    10.450270    16.245590  2  C
  7.445310     8.024410    16.349770  2  C
  7.434340    10.291570     9.132860  2  C
  7.754530     7.864010     9.163870  2  C
  7.110360    11.304900    13.862410  3  H
  7.213930    11.251230    11.464800  3  H
  7.674960     7.009350    13.994880  3  H
  7.779390     6.955110    11.573210  3  H
%endblock AtomicCoordinatesAndAtomicSpecies
#%block GeometryConstraints
#position from -1 to -30
#%endblock GeometryConstraints
%block kgrid_Monkhorst_Pack
 1 0 0  0.0
 0 1 0  0.0
 0 0 1  0.0
%endblock kgrid_Monkhorst_Pack
%block ProjectedDensityOfStates
-20.00  10.00  0.100  2500  eV
%endblock ProjectedDensityOfStates
#DFT, Grid, SCF
XC.functional           GGA
XC.authors              PBE
SpinPolarized           F
MeshCutoff              300.0 Ry
MaxSCFIterations        200
DM.MixingWeight         0.1
DM.NumberPulay          8
DM.NumberKick           40
DM.KickMixingWeight     0.10
DM.Tolerance            0.000001
#Eigenvalue problem: order-N or diagonalization
SolutionMethod          diagon
ElectronicTemperature   0.01 eV
#Molecular dynamics and relaxations
MD.TypeOfRun            CG
#MD.TypeOfRun            Broyden
MD.VariableCell         F
MD.NumCGsteps           300
MD.MaxCGDispl           0.25  Bohr
MD.MaxForceTol          0.0001 eV/Ang
#Output options
WriteMullikenPop        0
LongOutput              T
WriteCoorInitial        T
WriteDM                 T
WriteCoorXmol           T
WriteMDXmol		T
UseSaveData             F
SaveRho false
SaveDeltaRho false
#Basis Definition
PAO.BasisType      split
PAO.BasisSize      DZP
PAO.EnergyShift    0.005 Ry
PAO.SplitNorm      0.15
#%block PAO.Basis
#H           1                    # Species label, number of l-shells
# n=1   0   2 P   1                   # n, l, Nzeta, Polarization, NzetaPol
#   5.752      4.002
#   1.000      1.000
#C           2                    # Species label, number of l-shells
# n=2   0   2                         # n, l, Nzeta
#   4.870      3.475
#   1.000      1.000
# n=2   1   2 P   1                   # n, l, Nzeta, Polarization, NzetaPol
#   6.099      3.699
#   1.000      1.000
#S           2                    # Species label, number of l-shells
# n=3   0   2                         # n, l, Nzeta
#   4.842      3.543
#   1.000      1.000
# n=3   1   2 P   1                   # n, l, Nzeta, Polarization, NzetaPol
#   6.064      3.964
#   1.000      1.000
#
#%endblock PAO.Basis
#
#%block WaveFuncKPoints
#  0.000  0.000  0.000  from 1 to 20   # Gamma wavefuncs 1 to 10
#%endblock WaveFuncKPoints
#--------DENCHAR-----------
# WriteDenchar                   .true. #for plotting orbitals see section 6.25 in manual and /Util/denchar
# Denchar.TypeOfRun               3D
# Denchar.PlotWaveFunctions      .true.
# Denchar.PlotCharge             .true.
# Denchar.DensityUnits            Ele/Ang**3
# COOP.write                    .true.
#  Denchar.MinX                   4.0 Ang
#  Denchar.MaxX                    16 Ang
#  Denchar.MinY                   4.0 Ang
#  Denchar.MaxY                    16 Ang
#  Denchar.MinZ                   4.0 Ang
#  Denchar.MaxZ                    16 Ang
#  Denchar.NumberPointsX                 100
#  Denchar.NumberPointsY                 100
#  Denchar.NumberPointsZ                 100
#----DENCHAR-----------------
************************** End of input data file *****************************

reinit: -----------------------------------------------------------------------
reinit: System Name: TCNQ
reinit: -----------------------------------------------------------------------
reinit: System Label: TCNQ                                                        
reinit: -----------------------------------------------------------------------

initatom: Reading input for the pseudopotentials and atomic orbitals ----------
 Species number:            1  Label: N Atomic number:           7
 Species number:            2  Label: C Atomic number:           6
 Species number:            3  Label: H Atomic number:           1
Ground state valence configuration:   2s02  2p03
Reading pseudopotential information in formatted form from N.psf

Valence configuration for pseudopotential generation:
2s( 2.00) rc: 1.48
2p( 3.00) rc: 1.48
3d( 0.00) rc: 1.48
4f( 0.00) rc: 1.48
Ground state valence configuration:   2s02  2p02
Reading pseudopotential information in formatted form from C.psf

Valence configuration for pseudopotential generation:
2s( 2.00) rc: 1.54
2p( 2.00) rc: 1.54
3d( 0.00) rc: 1.54
4f( 0.00) rc: 1.54
Ground state valence configuration:   1s01
Reading pseudopotential information in formatted form from H.psf

Valence configuration for pseudopotential generation:
1s( 1.00) rc: 1.31
2p( 0.00) rc: 1.31
3d( 0.00) rc: 0.37
4f( 0.00) rc: 1.31
For N, standard SIESTA heuristics set lmxkb to 3
 (one more than the basis l, including polarization orbitals).
Use PS.lmax or PS.KBprojectors blocks to override.
For C, standard SIESTA heuristics set lmxkb to 3
 (one more than the basis l, including polarization orbitals).
Use PS.lmax or PS.KBprojectors blocks to override.
For H, standard SIESTA heuristics set lmxkb to 2
 (one more than the basis l, including polarization orbitals).
Use PS.lmax or PS.KBprojectors blocks to override.

<basis_specs>
===============================================================================
N                    Z=   7    Mass=  14.010        Charge= 0.17977+309
Lmxo=1 Lmxkb= 3    BasisType=split      Semic=F
L=0  Nsemic=0  Cnfigmx=2
          n=1  nzeta=2  polorb=0
            splnorm:   0.15000    
               vcte:    0.0000    
               rinn:    0.0000    
                rcs:    0.0000      0.0000    
            lambdas:    1.0000      1.0000    
L=1  Nsemic=0  Cnfigmx=2
          n=1  nzeta=2  polorb=1
            splnorm:   0.15000    
               vcte:    0.0000    
               rinn:    0.0000    
                rcs:    0.0000      0.0000    
            lambdas:    1.0000      1.0000    
-------------------------------------------------------------------------------
L=0  Nkbl=1  erefs: 0.17977+309
L=1  Nkbl=1  erefs: 0.17977+309
L=2  Nkbl=1  erefs: 0.17977+309
L=3  Nkbl=1  erefs: 0.17977+309
===============================================================================
</basis_specs>

atom: Called for N                     (Z =   7)

read_vps: Pseudopotential generation method:
read_vps: ATM3      Troullier-Martins                       
Total valence charge:    5.00000

read_vps: Pseudopotential includes a core correction:
read_vps: Pseudo-core for xc-correction

xc_check: Exchange-correlation functional:
xc_check: GGA Perdew, Burke & Ernzerhof 1996
V l=0 = -2*Zval/r beyond r=  1.4606
V l=1 = -2*Zval/r beyond r=  1.4606
V l=2 = -2*Zval/r beyond r=  1.4606
V l=3 = -2*Zval/r beyond r=  1.4606
All V_l potentials equal beyond r=  1.4606
This should be close to max(r_c) in ps generation
All pots = -2*Zval/r beyond r=  1.4606

VLOCAL1: 99.0% of the norm of Vloc inside     20.347 Ry
VLOCAL1: 99.9% of the norm of Vloc inside     46.372 Ry
atom: Maximum radius for 4*pi*r*r*local-pseudopot. charge    1.76189
atom: Maximum radius for r*vlocal+2*Zval:    1.53550
GHOST: No ghost state for L =  0
GHOST: No ghost state for L =  1
GHOST: No ghost state for L =  2
GHOST: No ghost state for L =  3

KBgen: Kleinman-Bylander projectors: 
   l= 0   rc=  1.634559   el= -1.363963   Ekb=  5.296955   kbcos=  0.335621
   l= 1   rc=  1.614250   el= -0.521451   Ekb= -5.259161   kbcos= -0.433408
   l= 2   rc=  1.718383   el=  0.001991   Ekb= -1.271464   kbcos= -0.007566
   l= 3   rc=  1.761893   el=  0.003093   Ekb= -0.494769   kbcos= -0.001015

KBgen: Total number of  Kleinman-Bylander projectors:   16
atom: -------------------------------------------------------------------------

atom: SANKEY-TYPE ORBITALS:
atom: Selected multiple-zeta basis: split     

SPLIT: Orbitals with angular momentum L= 0

SPLIT: Basis orbitals for state 2s

SPLIT: PAO cut-off radius determined from an
SPLIT: energy shift=  0.005000 Ry

   izeta = 1
                 lambda =    1.000000
                     rc =    4.280232
                 energy =   -1.359234
                kinetic =    1.164005
    potential(screened) =   -2.523239
       potential(ionic) =   -8.036510

   izeta = 2
                 rmatch =    2.905100
              splitnorm =    0.150000
                 energy =   -1.171402
                kinetic =    1.786488
    potential(screened) =   -2.957890
       potential(ionic) =   -8.876410

SPLIT: Orbitals with angular momentum L= 1

SPLIT: Basis orbitals for state 2p

SPLIT: PAO cut-off radius determined from an
SPLIT: energy shift=  0.005000 Ry

   izeta = 1
                 lambda =    1.000000
                     rc =    5.360321
                 energy =   -0.517107
                kinetic =    3.398243
    potential(screened) =   -3.915350
       potential(ionic) =   -9.221360

   izeta = 2
                 rmatch =    3.092486
              splitnorm =    0.150000
                 energy =   -0.357428
                kinetic =    4.900330
    potential(screened) =   -5.257758
       potential(ionic) =  -11.137459

POLgen: Perturbative polarization orbital with L=  2

POLgen: Polarization orbital for state 2p

   izeta = 1
                     rc =    5.360321
                 energy =    1.521980
                kinetic =    3.110787
    potential(screened) =   -1.588807
       potential(ionic) =   -5.819113
atom: Total number of Sankey-type orbitals: 13

atm_pop: Valence configuration (for local Pseudopot. screening):
 2s( 2.00)                                                            
 2p( 3.00)                                                            
Vna: chval, zval:    5.00000   5.00000

Vna:  Cut-off radius for the neutral-atom potential:   5.360321
comcore: Pseudo-core radius Rcore=  1.554824

atom: _________________________________________________________________________

<basis_specs>
===============================================================================
C                    Z=   6    Mass=  12.010        Charge= 0.17977+309
Lmxo=1 Lmxkb= 3    BasisType=split      Semic=F
L=0  Nsemic=0  Cnfigmx=2
          n=1  nzeta=2  polorb=0
            splnorm:   0.15000    
               vcte:    0.0000    
               rinn:    0.0000    
                rcs:    0.0000      0.0000    
            lambdas:    1.0000      1.0000    
L=1  Nsemic=0  Cnfigmx=2
          n=1  nzeta=2  polorb=1
            splnorm:   0.15000    
               vcte:    0.0000    
               rinn:    0.0000    
                rcs:    0.0000      0.0000    
            lambdas:    1.0000      1.0000    
-------------------------------------------------------------------------------
L=0  Nkbl=1  erefs: 0.17977+309
L=1  Nkbl=1  erefs: 0.17977+309
L=2  Nkbl=1  erefs: 0.17977+309
L=3  Nkbl=1  erefs: 0.17977+309
===============================================================================
</basis_specs>

atom: Called for C                     (Z =   6)

read_vps: Pseudopotential generation method:
read_vps: ATM3      Troullier-Martins                       
Total valence charge:    4.00000

read_vps: Pseudopotential includes a core correction:
read_vps: Pseudo-core for xc-correction

xc_check: Exchange-correlation functional:
xc_check: GGA Perdew, Burke & Ernzerhof 1996
V l=0 = -2*Zval/r beyond r=  1.5227
V l=1 = -2*Zval/r beyond r=  1.5227
V l=2 = -2*Zval/r beyond r=  1.5227
V l=3 = -2*Zval/r beyond r=  1.5038
All V_l potentials equal beyond r=  1.5227
This should be close to max(r_c) in ps generation
All pots = -2*Zval/r beyond r=  1.5227

VLOCAL1: 99.0% of the norm of Vloc inside     18.722 Ry
VLOCAL1: 99.9% of the norm of Vloc inside     42.668 Ry
atom: Maximum radius for 4*pi*r*r*local-pseudopot. charge    1.83678
atom: Maximum radius for r*vlocal+2*Zval:    1.58088
GHOST: No ghost state for L =  0
GHOST: No ghost state for L =  1
GHOST: No ghost state for L =  2
GHOST: No ghost state for L =  3

KBgen: Kleinman-Bylander projectors: 
   l= 0   rc=  1.704034   el= -1.009801   Ekb=  5.335044   kbcos=  0.316824
   l= 1   rc=  1.704034   el= -0.388707   Ekb= -3.785862   kbcos= -0.366464
   l= 2   rc=  1.791422   el=  0.001971   Ekb= -0.970471   kbcos= -0.009212
   l= 3   rc=  1.859892   el=  0.003065   Ekb= -0.399525   kbcos= -0.001223

KBgen: Total number of  Kleinman-Bylander projectors:   16
atom: -------------------------------------------------------------------------

atom: SANKEY-TYPE ORBITALS:
atom: Selected multiple-zeta basis: split     

SPLIT: Orbitals with angular momentum L= 0

SPLIT: Basis orbitals for state 2s

SPLIT: PAO cut-off radius determined from an
SPLIT: energy shift=  0.005000 Ry

   izeta = 1
                 lambda =    1.000000
                     rc =    4.870301
                 energy =   -1.004978
                kinetic =    0.843912
    potential(screened) =   -1.848890
       potential(ionic) =   -5.399930

   izeta = 2
                 rmatch =    3.475094
              splitnorm =    0.150000
                 energy =   -0.867524
                kinetic =    1.299872
    potential(screened) =   -2.167396
       potential(ionic) =   -5.961732

SPLIT: Orbitals with angular momentum L= 1

SPLIT: Basis orbitals for state 2p

SPLIT: PAO cut-off radius determined from an
SPLIT: energy shift=  0.005000 Ry

   izeta = 1
                 lambda =    1.000000
                     rc =    6.099293
                 energy =   -0.384291
                kinetic =    2.361393
    potential(screened) =   -2.745684
       potential(ionic) =   -6.151019

   izeta = 2
                 rmatch =    3.699245
              splitnorm =    0.150000
                 energy =   -0.263576
                kinetic =    3.460758
    potential(screened) =   -3.724335
       potential(ionic) =   -7.494953

POLgen: Perturbative polarization orbital with L=  2

POLgen: Polarization orbital for state 2p

   izeta = 1
                     rc =    6.099293
                 energy =    1.042694
                kinetic =    2.181445
    potential(screened) =   -1.138752
       potential(ionic) =   -3.900921
atom: Total number of Sankey-type orbitals: 13

atm_pop: Valence configuration (for local Pseudopot. screening):
 2s( 2.00)                                                            
 2p( 2.00)                                                            
Vna: chval, zval:    4.00000   4.00000

Vna:  Cut-off radius for the neutral-atom potential:   6.099293
comcore: Pseudo-core radius Rcore=  1.791422

atom: _________________________________________________________________________

<basis_specs>
===============================================================================
H                    Z=   1    Mass=  1.0100        Charge= 0.17977+309
Lmxo=0 Lmxkb= 2    BasisType=split      Semic=F
L=0  Nsemic=0  Cnfigmx=1
          n=1  nzeta=2  polorb=1
            splnorm:   0.15000    
               vcte:    0.0000    
               rinn:    0.0000    
                rcs:    0.0000      0.0000    
            lambdas:    1.0000      1.0000    
-------------------------------------------------------------------------------
L=0  Nkbl=1  erefs: 0.17977+309
L=1  Nkbl=1  erefs: 0.17977+309
L=2  Nkbl=1  erefs: 0.17977+309
===============================================================================
</basis_specs>

atom: Called for H                     (Z =   1)

read_vps: Pseudopotential generation method:
read_vps: ATM3      Troullier-Martins                       
Total valence charge:    1.00000

xc_check: Exchange-correlation functional:
xc_check: GGA Perdew, Burke & Ernzerhof 1996
V l=0 = -2*Zval/r beyond r=  1.2977
V l=1 = -2*Zval/r beyond r=  1.2815
V l=2 = -2*Zval/r beyond r=  1.2656
All V_l potentials equal beyond r=  1.2977
This should be close to max(r_c) in ps generation
All pots = -2*Zval/r beyond r=  1.2977

VLOCAL1: 99.0% of the norm of Vloc inside     25.776 Ry
VLOCAL1: 99.9% of the norm of Vloc inside     58.745 Ry
atom: Maximum radius for 4*pi*r*r*local-pseudopot. charge    1.52711
atom: Maximum radius for r*vlocal+2*Zval:    1.28155
GHOST: No ghost state for L =  0
GHOST: No ghost state for L =  1
GHOST: No ghost state for L =  2

KBgen: Kleinman-Bylander projectors: 
   l= 0   rc=  1.434438   el= -0.477200   Ekb= -1.957043   kbcos= -0.361614
   l= 1   rc=  1.508111   el=  0.001076   Ekb= -0.424224   kbcos= -0.025441
   l= 2   rc=  1.527112   el=  0.002010   Ekb= -0.378578   kbcos= -0.002010

KBgen: Total number of  Kleinman-Bylander projectors:    9
atom: -------------------------------------------------------------------------

atom: SANKEY-TYPE ORBITALS:
atom: Selected multiple-zeta basis: split     

SPLIT: Orbitals with angular momentum L= 0

SPLIT: Basis orbitals for state 1s

SPLIT: PAO cut-off radius determined from an
SPLIT: energy shift=  0.005000 Ry

   izeta = 1
                 lambda =    1.000000
                     rc =    5.752124
                 energy =   -0.472099
                kinetic =    0.901451
    potential(screened) =   -1.373550
       potential(ionic) =   -1.895131

   izeta = 2
                 rmatch =    4.002347
              splitnorm =    0.150000
                 energy =   -0.371667
                kinetic =    1.468035
    potential(screened) =   -1.839702
       potential(ionic) =   -2.387541

POLgen: Perturbative polarization orbital with L=  1

POLgen: Polarization orbital for state 1s

   izeta = 1
                     rc =    5.752124
                 energy =    0.595504
                kinetic =    1.226627
    potential(screened) =   -0.631124
       potential(ionic) =   -1.104953
atom: Total number of Sankey-type orbitals:  5

atm_pop: Valence configuration (for local Pseudopot. screening):
 1s( 1.00)                                                            
Vna: chval, zval:    1.00000   1.00000

Vna:  Cut-off radius for the neutral-atom potential:   5.752124

atom: _________________________________________________________________________

prinput: Basis input ----------------------------------------------------------

PAO.BasisType split     

%block ChemicalSpeciesLabel
    1    7 N                       # Species index, atomic number, species label
    2    6 C                       # Species index, atomic number, species label
    3    1 H                       # Species index, atomic number, species label
%endblock ChemicalSpeciesLabel

%block PAO.Basis                 # Define Basis set
N                     2                    # Species label, number of l-shells
 n=2   0   2                         # n, l, Nzeta 
   4.280      2.905   
   1.000      1.000   
 n=2   1   2 P   1                   # n, l, Nzeta, Polarization, NzetaPol
   5.360      3.092   
   1.000      1.000   
C                     2                    # Species label, number of l-shells
 n=2   0   2                         # n, l, Nzeta 
   4.870      3.475   
   1.000      1.000   
 n=2   1   2 P   1                   # n, l, Nzeta, Polarization, NzetaPol
   6.099      3.699   
   1.000      1.000   
H                     1                    # Species label, number of l-shells
 n=1   0   2 P   1                   # n, l, Nzeta, Polarization, NzetaPol
   5.752      4.002   
   1.000      1.000   
%endblock PAO.Basis

prinput: ----------------------------------------------------------------------

coor:   Atomic-coordinates input format  =     Cartesian coordinates
coor:                                          (in Angstroms)

siesta: Atomic coordinates (Bohr) and species
siesta:     13.17684  21.60908  31.81176  1        1
siesta:     14.25017  13.41001  32.19112  1        2
siesta:     13.85705  21.25765  16.04442  1        3
siesta:     14.94046  13.05210  16.12096  1        4
siesta:     13.71380  19.54630  25.30004  2        5
siesta:     13.82785  19.48726  22.66223  2        6
siesta:     13.95117  17.31704  26.74935  2        7
siesta:     14.30962  15.01471  25.43461  2        8
siesta:     14.42410  14.95530  22.78166  2        9
siesta:     14.18489  17.19602  21.33961  2       10
siesta:     13.83567  17.40019  29.33767  2       11
siesta:     14.29272  17.16367  18.74989  2       12
siesta:     13.46886  19.74816  30.69973  2       13
siesta:     14.06960  15.16394  30.89660  2       14
siesta:     14.04887  19.44826  17.25861  2       15
siesta:     14.65394  14.86083  17.31721  2       16
siesta:     13.43664  21.36317  26.19617  3       17
siesta:     13.63236  21.26175  21.66534  3       18
siesta:     14.50358  13.24576  26.44650  3       19
siesta:     14.70092  13.14326  21.87021  3       20

siesta: System type = molecule  

initatomlists: Number of atoms, orbitals, and projectors:     20   228   292

siesta: ******************** Simulation parameters ****************************
siesta:
siesta: The following are some of the parameters of the simulation.
siesta: A complete list of the parameters used, including default values,
siesta: can be found in file out.fdf
siesta:
redata: Non-Collinear-spin run           =     F
redata: SpinPolarized (Up/Down) run      =     F
redata: Number of spin components        =     1
redata: Long output                      =     T
redata: Number of Atomic Species         =        3
redata: Charge density info will appear in .RHO file
redata: Write Mulliken Pop.              =     Atomic and Orbital charges
redata: Mesh Cutoff                      =   300.0000  Ry
redata: Net charge of the system         =     0.0000 |e|
redata: Max. number of SCF Iter          =      200
redata: Performing Pulay mixing using    =     8 iterations
redata: Mix DM in first SCF step ?       =     F
redata: Write Pulay info on disk?        =     F
redata: Discard 1st Pulay DM after  kick =     F
redata: New DM Mixing Weight             =     0.1000
redata: New DM Occupancy tolerance       = 0.000000000001
redata: Kick with linear mixing every    =    40 iterations
redata: DM Mixing Weight for Kicks       =     0.1000
redata: DM Tolerance for SCF             =     0.000001
redata: Require Energy convergence for SCF =     F
redata: DM Energy tolerance for SCF      =     0.000100 eV
redata: Require Harris convergence for SCF =     F
redata: DM Harris energy tolerance for SCF =     0.000100 eV
redata: Using Saved Data (generic)   =     F
redata: Use continuation files for DM    =     F
redata: Neglect nonoverlap interactions  =     F
redata: Method of Calculation            =     Diagonalization
redata: Divide and Conquer               =     T
redata: Electronic Temperature           =     0.0007  Ry
redata: Fix the spin of the system       =     F
redata: Dynamics option                  =     CG coord. optimization
redata: Variable cell                    =     F
redata: Use continuation files for CG    =     F
redata: Max atomic displ per move        =     0.2500  Bohr
redata: Maximum number of CG moves       =      300
redata: Force tolerance                  =     0.0000  Ry/Bohr
redata: ***********************************************************************
Total number of electrons:    72.000000
Total ionic charge:    72.000000

* ProcessorY, Blocksize:    4  15

 Kpoints in:            1 . Kpoints trimmed:            1

siesta: k-point coordinates (Bohr**-1) and weights:
siesta:    1    0.000000    0.000000    0.000000       1.000000

siesta: k-grid: Number of k-points =     1
siesta: k-grid: Cutoff (effective) =     7.500 Ang
siesta: k-grid: Supercell and displacements
siesta: k-grid:    1   0   0      0.000
siesta: k-grid:    0   1   0      0.000
siesta: k-grid:    0   0   1      0.000

* Maximum dynamic memory allocated =     3 MB

siesta:                 ==============================
                            Begin CG move =      0
                        ==============================

outcoor: Atomic coordinates (Ang):                          
    6.97288000   11.43503000   16.83405000   1       1  N
    7.54086000    7.09627000   17.03480000   1       2  N
    7.33283000   11.24906000    8.49034000   1       3  N
    7.90615000    6.90687000    8.53084000   1       4  N
    7.25703000   10.34345000   13.38820000   2       5  C
    7.31738000   10.31221000   11.99233000   2       6  C
    7.38264000    9.16378000   14.15514000   2       7  C
    7.57232000    7.94544000   13.45941000   2       8  C
    7.63290000    7.91400000   12.05553000   2       9  C
    7.50632000    9.09974000   11.29243000   2      10  C
    7.32152000    9.20778000   15.52482000   2      11  C
    7.56338000    9.08262000    9.92201000   2      12  C
    7.12741000   10.45027000   16.24559000   2      13  C
    7.44531000    8.02441000   16.34977000   2      14  C
    7.43434000   10.29157000    9.13286000   2      15  C
    7.75453000    7.86401000    9.16387000   2      16  C
    7.11036000   11.30490000   13.86241000   3      17  H
    7.21393000   11.25123000   11.46480000   3      18  H
    7.67496000    7.00935000   13.99488000   3      19  H
    7.77939000    6.95511000   11.57321000   3      20  H

outcell: Unit cell vectors (Ang):
       15.000000    0.000000    0.000000
        0.000000   25.000000    0.000000
        0.000000    0.000000   25.000000

outcell: Cell vector modules (Ang)   :   15.000000   25.000000   25.000000
outcell: Cell angles (23,13,12) (deg):     90.0000     90.0000     90.0000
outcell: Cell volume (Ang**3)        :   9375.0000
New_DM. Step:     1
Initializing Density Matrix...

InitMesh: MESH =   160 x   270 x   270 =    11664000
InitMesh: Mesh cutoff (required, used) =   300.000   314.455 Ry

* Maximum dynamic memory allocated =   115 MB

stepf: Fermi-Dirac step function

siesta: Program's energy decomposition (eV):
siesta: Ebs     =     -1154.786298
siesta: Eions   =      4807.522786
siesta: Ena     =       979.657857
siesta: Ekin    =      1777.279452
siesta: Enl     =       -73.431454
siesta: DEna    =        -0.000002
siesta: DUscf   =         0.000000
siesta: DUext   =         0.000000
siesta: Exc     =      -985.394057
siesta: eta*DQ  =         0.000000
siesta: Emadel  =         0.000000
siesta: Emeta   =         0.000000
siesta: Emolmec =         0.000000
siesta: Ekinion =         0.000000
siesta: Eharris =     -3130.980353
siesta: Etot    =     -3109.410990
siesta: FreeEng =     -3109.410990

siesta: iscf   Eharris(eV)      E_KS(eV)   FreeEng(eV)   dDmax  Ef(eV)
siesta:    1    -3130.9804    -3109.4110    -3109.4110  1.9203 -7.7613
timer: Routine,Calls,Time,% = IterSCF        1     152.434  90.91
elaps: Routine,Calls,Wall,% = IterSCF        1       9.572  90.95
siesta:    2    -3142.3063    -3117.0995    -3117.0995  0.4306 -5.6923
siesta:    3    -3126.9861    -3118.5220    -3118.5220  0.3939 -5.7506
siesta:    4    -3124.3318    -3120.2313    -3120.2313  0.1946 -5.8680
siesta:    5    -3124.4014    -3121.2180    -3121.2180  0.1279 -6.1057
siesta:    6    -3124.1130    -3122.8417    -3122.8417  0.0220 -6.5334
siesta:    7    -3124.0865    -3123.2287    -3123.2287  0.0134 -6.5220
siesta:    8    -3124.0814    -3123.4548    -3123.4548  0.0109 -6.4830
siesta:    9    -3124.0774    -3123.9891    -3123.9891  0.0015 -6.4441
siesta:   10    -3124.0774    -3124.0195    -3124.0195  0.0010 -6.4430
siesta:   11    -3124.0772    -3124.0653    -3124.0653  0.0002 -6.4422
siesta:   12    -3124.0772    -3124.0728    -3124.0728  0.0001 -6.4436
siesta:   13    -3124.0772    -3124.0757    -3124.0757  0.0001 -6.4434
siesta:   14    -3124.0772    -3124.0761    -3124.0761  0.0000 -6.4434
siesta:   15    -3124.0772    -3124.0763    -3124.0763  0.0000 -6.4434
siesta:   16    -3124.0772    -3124.0773    -3124.0773  0.0000 -6.4434
siesta:   17    -3124.0772    -3124.0772    -3124.0772  0.0000 -6.4434
siesta:   18    -3124.0772    -3124.0772    -3124.0772  0.0000 -6.4434
siesta:   19    -3124.0772    -3124.0772    -3124.0772  0.0000 -6.4434
siesta:   20    -3124.0772    -3124.0772    -3124.0772  0.0000 -6.4434
siesta:   21    -3124.0772    -3124.0772    -3124.0772  0.0000 -6.4434

siesta: E_KS(eV) =            -3124.0772

siesta: E_KS - E_eggbox =     -3124.0772

siesta: Atomic forces (eV/Ang):
     1   -0.403649    2.564229    1.493862
     2    0.254327   -2.444107    1.728122
     3   -0.272576    2.497407   -1.628212
     4    0.391885   -2.514814   -1.592142
     5    0.005706    0.651134   -2.291464
     6   -0.190066    0.747082    2.255043
     7    0.032853   -0.095872   -0.474110
     8    0.186817   -0.674977   -2.424967
     9   -0.023506   -0.565058    2.454429
    10   -0.010169   -0.066774    0.488023
    11   -0.101855    0.070638    2.291231
    12    0.093866   -0.029077   -2.294495
    13    0.442870   -2.844516   -1.600412
    14   -0.280963    2.683911   -1.863276
    15    0.297742   -2.773332    1.756881
    16   -0.431231    2.759013    1.712301
    17   -0.115543    0.713628    0.523324
    18   -0.068624    0.687463   -0.561528
    19    0.067702   -0.662598    0.509876
    20    0.110268   -0.688294   -0.475580
----------------------------------------
   Tot   -0.014147    0.015085    0.006906
----------------------------------------
   Max    2.844516
   Res    1.397979    sqrt( Sum f_i^2 / 3N )
----------------------------------------
   Max    2.844516    constrained

Stress-tensor-Voigt (kbar):       -0.05       -2.97       -1.66        0.39        0.05        0.06
(Free)E + p*V (eV/cell)    -3114.9567
Target enthalpy (eV/cell)    -3124.0772

mulliken: Mulliken Atomic and Orbital Populations:

Species: N                   
Atom  Qatom  Qorb
               2s      2s      2py     2pz     2px     2py     2pz     2px     
               2Pdxy   2Pdyz   2Pdz2   2Pdxz   2Pdx2-y2
   1  4.930   0.838   0.579   1.083   0.909   0.817   0.208   0.206   0.214
              0.019   0.018   0.017   0.007   0.015
   2  4.929   0.835   0.581   1.057   0.940   0.813   0.206   0.207   0.213
              0.017   0.017   0.020   0.010   0.013
   3  4.931   0.837   0.579   1.069   0.927   0.814   0.208   0.207   0.213
              0.018   0.017   0.018   0.009   0.014
   4  4.929   0.835   0.581   1.071   0.923   0.817   0.207   0.206   0.214
              0.018   0.018   0.018   0.008   0.014

Species: C                   
Atom  Qatom  Qorb
               2s      2s      2py     2pz     2px     2py     2pz     2px     
               2Pdxy   2Pdyz   2Pdz2   2Pdxz   2Pdx2-y2
   5  3.776   0.186   0.695   0.197   0.432   0.613   0.720   0.524   0.278
              0.015   0.043   0.032   0.030   0.010
   6  3.776   0.186   0.694   0.213   0.412   0.618   0.707   0.541   0.274
              0.015   0.045   0.031   0.029   0.011
   7  3.925   0.215   0.680   0.512   0.601   0.510   0.443   0.398   0.358
              0.039   0.052   0.043   0.051   0.025
   8  3.778   0.190   0.694   0.217   0.406   0.622   0.704   0.545   0.271
              0.015   0.045   0.030   0.029   0.011
   9  3.778   0.192   0.693   0.199   0.426   0.618   0.719   0.528   0.274
              0.015   0.043   0.032   0.030   0.010
  10  3.924   0.214   0.680   0.511   0.602   0.510   0.443   0.397   0.358
              0.039   0.052   0.043   0.051   0.025
  11  4.027   0.204   0.709   0.579   0.532   0.579   0.375   0.457   0.398
              0.030   0.060   0.044   0.039   0.021
  12  4.028   0.204   0.709   0.582   0.531   0.579   0.373   0.459   0.398
              0.030   0.060   0.044   0.039   0.021
  13  4.105   0.591   0.449   0.777   0.579   0.555   0.274   0.365   0.360
              0.048   0.033   0.032   0.019   0.023
  14  4.105   0.590   0.450   0.744   0.614   0.551   0.290   0.351   0.362
              0.044   0.030   0.036   0.024   0.021
  15  4.104   0.590   0.450   0.762   0.598   0.551   0.281   0.357   0.362
              0.046   0.031   0.034   0.022   0.021
  16  4.106   0.591   0.450   0.760   0.594   0.555   0.284   0.359   0.360
              0.046   0.032   0.033   0.021   0.022

Species: H                   
Atom  Qatom  Qorb
               1s      1s      1Ppy    1Ppz    1Ppx    
  17  1.212   0.786   0.324   0.043   0.028   0.032
  18  1.213   0.787   0.323   0.042   0.029   0.032
  19  1.212   0.786   0.324   0.041   0.029   0.032
  20  1.212   0.786   0.323   0.042   0.028   0.032

mulliken: Qtot =       72.000

* Maximum dynamic memory allocated =   116 MB

siesta:                 ==============================
                            Begin CG move =      1
                        ==============================

outcoor: Atomic coordinates (Ang):                          
    6.96794862   11.46635720   16.85230052   1       1  N
    7.54396712    7.06641033   17.05591247   1       2  N
    7.32949993   11.27957083    8.47044813   1       3  N
    7.91093766    6.87614650    8.51138880   1       4  N
    7.25709971   10.35140490   13.36020517   2       5  C
    7.31505796   10.32133710   12.01987987   2       6  C
    7.38304137    9.16260874   14.14934779   2       7  C
    7.57460234    7.93719380   13.42978416   2       8  C
    7.63261283    7.90709668   12.08551577   2       9  C
    7.50619576    9.09892422   11.29839218   2      10  C
    7.32027564    9.20864298   15.55281198   2      11  C
    7.56452676    9.08226477    9.89397815   2      12  C
    7.13282055   10.41551854   16.22603776   2      13  C
    7.44187747    8.05719935   16.32700634   2      14  C
    7.43797752   10.25768819    9.15432382   2      15  C
    7.74926165    7.89771687    9.18478919   2      16  C
    7.10894841   11.31361840   13.86880345   3      17  H
    7.21309162   11.25962874   11.45793981   3      18  H
    7.67578711    7.00125504   14.00110916   3      19  H
    7.78073714    6.94670111   11.56739984   3      20  H

outcell: Unit cell vectors (Ang):
       15.000000    0.000000    0.000000
        0.000000   25.000000    0.000000
        0.000000    0.000000   25.000000

outcell: Cell vector modules (Ang)   :   15.000000   25.000000   25.000000
outcell: Cell angles (23,13,12) (deg):     90.0000     90.0000     90.0000
outcell: Cell volume (Ang**3)        :   9375.0000
New_DM. Step:     2
Re-using DM from previous geometry...
Re-using DM without extrapolation (not allowed)
Density Matrix sparsity pattern changed.

siesta: iscf   Eharris(eV)      E_KS(eV)   FreeEng(eV)   dDmax  Ef(eV)
siesta:    1    -3124.1340    -3123.7881    -3123.7881  0.1515 -6.0419
siesta:    2    -3127.7947    -3122.8507    -3122.8507  0.2607 -6.3809
siesta:    3    -3123.8800    -3123.6215    -3123.6215  0.0455 -6.5081
siesta:    4    -3123.8396    -3123.5559    -3123.5559  0.0200 -6.5402
siesta:    5    -3123.8300    -3123.5728    -3123.5728  0.0165 -6.4989
siesta:    6    -3123.8215    -3123.6744    -3123.6744  0.0108 -6.4261
siesta:    7    -3123.8198    -3123.7517    -3123.7517  0.0023 -6.4154
siesta:    8    -3123.8196    -3123.7658    -3123.7658  0.0017 -6.4162
siesta:    9    -3123.8195    -3123.7963    -3123.7963  0.0005 -6.4170
siesta:   10    -3123.8195    -3123.8125    -3123.8125  0.0001 -6.4184
siesta:   11    -3123.8195    -3123.8170    -3123.8170  0.0001 -6.4186
siesta:   12    -3123.8195    -3123.8177    -3123.8177  0.0000 -6.4186
siesta:   13    -3123.8195    -3123.8191    -3123.8191  0.0000 -6.4184
siesta:   14    -3123.8195    -3123.8193    -3123.8193  0.0000 -6.4184
siesta:   15    -3123.8195    -3123.8194    -3123.8194  0.0000 -6.4184
siesta:   16    -3123.8195    -3123.8195    -3123.8195  0.0000 -6.4184
siesta:   17    -3123.8195    -3123.8195    -3123.8195  0.0000 -6.4184
siesta:   18    -3123.8195    -3123.8195    -3123.8195  0.0000 -6.4184

siesta: E_KS(eV) =            -3123.8195

siesta: Atomic forces (eV/Ang):
     1    0.554207   -3.550954   -2.186333
     2   -0.339307    3.311457   -2.547482
     3    0.359454   -3.443270    2.380733
     4   -0.549067    3.408571    2.352658
     5   -0.131402    0.516099    1.563752
     6    0.004231    0.456897   -1.588547
     7    0.016534    0.000772   -0.405217
     8    0.001503   -0.475611    1.557538
     9    0.135285   -0.548093   -1.525595
    10   -0.019009    0.022372    0.401659
    11    0.055544   -0.035725   -1.244025
    12   -0.052135    0.014423    1.255310
    13   -0.789708    4.996366    3.113495
    14    0.484636   -4.747047    3.611694
    15   -0.509943    4.860279   -3.393466
    16    0.779838   -4.891419   -3.339520
    17   -0.041717    0.254959    0.200950
    18   -0.023619    0.242950   -0.211256
    19    0.020012   -0.187062    0.129234
    20    0.030696   -0.195077   -0.118116
----------------------------------------
   Tot   -0.013968    0.010886    0.007465
----------------------------------------
   Max    4.996366
   Res    1.945454    sqrt( Sum f_i^2 / 3N )
----------------------------------------
   Max    4.996366    constrained

Stress-tensor-Voigt (kbar):        0.01        0.50       -0.78       -0.07       -0.03        0.04
(Free)E + p*V (eV/cell)    -3123.2916
Target enthalpy (eV/cell)    -3123.8195

mulliken: Mulliken Atomic and Orbital Populations:

Species: N                   
Atom  Qatom  Qorb
               2s      2s      2py     2pz     2px     2py     2pz     2px     
               2Pdxy   2Pdyz   2Pdz2   2Pdxz   2Pdx2-y2
   1  4.958   0.960   0.525   1.047   0.933   0.882   0.204   0.173   0.163
              0.017   0.019   0.015   0.007   0.014
   2  4.957   0.957   0.527   1.033   0.949   0.879   0.198   0.180   0.162
              0.015   0.018   0.018   0.009   0.013
   3  4.958   0.959   0.525   1.039   0.942   0.880   0.201   0.177   0.162
              0.016   0.018   0.017   0.008   0.014
   4  4.957   0.957   0.526   1.041   0.939   0.881   0.201   0.176   0.163
              0.016   0.018   0.017   0.008   0.014

Species: C                   
Atom  Qatom  Qorb
               2s      2s      2py     2pz     2px     2py     2pz     2px     
               2Pdxy   2Pdyz   2Pdz2   2Pdxz   2Pdx2-y2
   5  3.785   0.183   0.690   0.211   0.442   0.596   0.704   0.530   0.294
              0.014   0.046   0.031   0.032   0.011
   6  3.785   0.184   0.689   0.226   0.421   0.600   0.692   0.547   0.291
              0.015   0.047   0.030   0.031   0.011
   7  3.905   0.258   0.666   0.501   0.566   0.540   0.444   0.405   0.328
              0.036   0.049   0.041   0.046   0.025
   8  3.787   0.187   0.688   0.231   0.415   0.603   0.688   0.553   0.289
              0.015   0.048   0.029   0.031   0.011
   9  3.786   0.187   0.688   0.213   0.436   0.599   0.702   0.534   0.293
              0.014   0.046   0.031   0.032   0.011
  10  3.905   0.259   0.665   0.499   0.565   0.540   0.445   0.406   0.327
              0.036   0.049   0.041   0.047   0.025
  11  4.039   0.180   0.711   0.643   0.498   0.539   0.342   0.490   0.428
              0.035   0.061   0.050   0.040   0.023
  12  4.039   0.179   0.711   0.643   0.499   0.540   0.342   0.489   0.428
              0.035   0.061   0.050   0.040   0.023
  13  4.076   0.550   0.489   0.730   0.574   0.571   0.309   0.358   0.337
              0.048   0.037   0.031   0.018   0.024
  14  4.078   0.550   0.489   0.705   0.602   0.568   0.318   0.351   0.338
              0.044   0.033   0.035   0.024   0.021
  15  4.077   0.551   0.489   0.718   0.589   0.568   0.313   0.354   0.338
              0.046   0.035   0.033   0.022   0.022
  16  4.077   0.550   0.489   0.717   0.585   0.571   0.316   0.355   0.337
              0.046   0.035   0.032   0.021   0.023

Species: H                   
Atom  Qatom  Qorb
               1s      1s      1Ppy    1Ppz    1Ppx    
  17  1.208   0.785   0.322   0.042   0.029   0.030
  18  1.209   0.785   0.322   0.041   0.030   0.030
  19  1.207   0.785   0.322   0.040   0.030   0.030
  20  1.207   0.785   0.322   0.042   0.029   0.030

mulliken: Qtot =       72.000

* Maximum dynamic memory allocated =   116 MB

siesta:                 ==============================
                            Begin CG move =      2
                        ==============================

outcoor: Atomic coordinates (Ang):                          
    6.97068643   11.44896492   16.84216817   1       1  N
    7.54224210    7.08298787   17.04419122   1       2  N
    7.33134873   11.26263178    8.48149173   1       3  N
    7.90827964    6.89320362    8.52218775   1       4  N
    7.25706101   10.34698849   13.37574738   2       5  C
    7.31634711   10.31626990   12.00458469   2       6  C
    7.38281853    9.16325900   14.15256352   2       7  C
    7.57333523    7.94177194   13.44623188   2       8  C
    7.63277226    7.91092928   12.06886823   2       9  C
    7.50626474    9.09937712   11.29508209   2      10  C
    7.32096648    9.20816387   15.53727135   2      11  C
    7.56389010    9.08246199    9.90954091   2      12  C
    7.12981671   10.43481191   16.23689280   2      13  C
    7.44378315    8.03899531   16.33964431   2      14  C
    7.43595804   10.27649874    9.14240751   2      15  C
    7.75218654    7.87900344    9.17317524   2      16  C
    7.10973210   11.30877811   13.86525392   3      17  H
    7.21355707   11.25496591   11.46174846   3      18  H
    7.67532792    7.00574921   13.99765085   3      19  H
    7.77998923    6.95136957   11.57062553   3      20  H

outcell: Unit cell vectors (Ang):
       15.000000    0.000000    0.000000
        0.000000   25.000000    0.000000
        0.000000    0.000000   25.000000

outcell: Cell vector modules (Ang)   :   15.000000   25.000000   25.000000
outcell: Cell angles (23,13,12) (deg):     90.0000     90.0000     90.0000
outcell: Cell volume (Ang**3)        :   9375.0000
New_DM. Step:     3
Re-using DM from previous geometry...
Re-using DM without extrapolation (not allowed)
Density Matrix sparsity pattern changed.

siesta: iscf   Eharris(eV)      E_KS(eV)   FreeEng(eV)   dDmax  Ef(eV)
siesta:    1    -3124.4493    -3124.2351    -3124.2351  0.0763 -6.6831
siesta:    2    -3125.2256    -3124.1102    -3124.1102  0.1042 -6.3055
siesta:    3    -3124.3876    -3124.2471    -3124.2471  0.0226 -6.3627
siesta:    4    -3124.3652    -3124.2728    -3124.2728  0.0106 -6.3720
siesta:    5    -3124.3615    -3124.2873    -3124.2873  0.0082 -6.3739
siesta:    6    -3124.3592    -3124.3164    -3124.3164  0.0054 -6.4001
siesta:    7    -3124.3586    -3124.3389    -3124.3389  0.0011 -6.4066
siesta:    8    -3124.3585    -3124.3503    -3124.3503  0.0002 -6.4072
siesta:    9    -3124.3585    -3124.3519    -3124.3519  0.0002 -6.4070
siesta:   10    -3124.3585    -3124.3549    -3124.3549  0.0001 -6.4067
siesta:   11    -3124.3585    -3124.3578    -3124.3578  0.0000 -6.4065
siesta:   12    -3124.3585    -3124.3579    -3124.3579  0.0000 -6.4065
siesta:   13    -3124.3585    -3124.3582    -3124.3582  0.0000 -6.4066
siesta:   14    -3124.3585    -3124.3584    -3124.3584  0.0000 -6.4066
siesta:   15    -3124.3585    -3124.3584    -3124.3584  0.0000 -6.4066
siesta:   16    -3124.3585    -3124.3585    -3124.3585  0.0000 -6.4066
siesta:   17    -3124.3585    -3124.3585    -3124.3585  0.0000 -6.4066
siesta:   18    -3124.3585    -3124.3585    -3124.3585  0.0000 -6.4066
siesta:   19    -3124.3585    -3124.3585    -3124.3585  0.0000 -6.4066
siesta:   20    -3124.3585    -3124.3585    -3124.3585  0.0000 -6.4066

siesta: E_KS(eV) =            -3124.3585

siesta: Atomic forces (eV/Ang):
     1    0.086882   -0.563228   -0.390615
     2   -0.049980    0.493520   -0.455265
     3    0.051204   -0.547556    0.432006
     4   -0.087850    0.510922    0.425727
     5   -0.051046    0.582469   -0.656118
     6   -0.106488    0.613457    0.624681
     7    0.024113   -0.051602   -0.408029
     8    0.108303   -0.584822   -0.752207
     9    0.042416   -0.551574    0.780019
    10   -0.013092   -0.025746    0.413800
    11   -0.033641    0.030557    0.745436
    12    0.030022   -0.007839   -0.747820
    13   -0.157981    0.982342    0.712055
    14    0.091294   -0.937760    0.823606
    15   -0.094939    0.946751   -0.764919
    16    0.159808   -0.971697   -0.766187
    17   -0.082260    0.505493    0.381189
    18   -0.047971    0.484720   -0.405592
    19    0.045761   -0.445568    0.340906
    20    0.074028   -0.462600   -0.317481
----------------------------------------
   Tot   -0.011415    0.000239    0.015191
----------------------------------------
   Max    0.982342
   Res    0.487690    sqrt( Sum f_i^2 / 3N )
----------------------------------------
   Max    0.982342    constrained

Stress-tensor-Voigt (kbar):       -0.02       -1.16       -1.11        0.15        0.01        0.04
(Free)E + p*V (eV/cell)    -3119.8778
Target enthalpy (eV/cell)    -3124.3585

mulliken: Mulliken Atomic and Orbital Populations:

Species: N                   
Atom  Qatom  Qorb
               2s      2s      2py     2pz     2px     2py     2pz     2px     
               2Pdxy   2Pdyz   2Pdz2   2Pdxz   2Pdx2-y2
   1  4.942   0.891   0.556   1.064   0.920   0.847   0.208   0.192   0.190
              0.018   0.019   0.016   0.007   0.015
   2  4.941   0.889   0.557   1.044   0.943   0.844   0.204   0.195   0.189
              0.016   0.017   0.019   0.009   0.013
   3  4.942   0.891   0.556   1.053   0.933   0.844   0.206   0.194   0.189
              0.017   0.018   0.018   0.008   0.014
   4  4.941   0.889   0.557   1.055   0.929   0.847   0.206   0.193   0.190
              0.017   0.018   0.017   0.008   0.014

Species: C                   
Atom  Qatom  Qorb
               2s      2s      2py     2pz     2px     2py     2pz     2px     
               2Pdxy   2Pdyz   2Pdz2   2Pdxz   2Pdx2-y2
   5  3.780   0.184   0.693   0.203   0.436   0.606   0.713   0.527   0.285
              0.014   0.044   0.032   0.031   0.011
   6  3.780   0.185   0.692   0.218   0.416   0.610   0.700   0.544   0.282
              0.015   0.046   0.030   0.030   0.011
   7  3.916   0.234   0.674   0.507   0.584   0.523   0.444   0.402   0.344
              0.037   0.051   0.042   0.049   0.025
   8  3.782   0.188   0.692   0.223   0.409   0.614   0.696   0.549   0.279
              0.015   0.046   0.030   0.030   0.011
   9  3.782   0.190   0.691   0.205   0.430   0.610   0.711   0.531   0.282
              0.014   0.045   0.031   0.031   0.010
  10  3.915   0.234   0.674   0.505   0.586   0.524   0.444   0.401   0.344
              0.037   0.051   0.042   0.049   0.025
  11  4.032   0.193   0.711   0.607   0.517   0.562   0.360   0.471   0.411
              0.032   0.060   0.047   0.039   0.022
  12  4.032   0.192   0.711   0.609   0.517   0.562   0.359   0.473   0.410
              0.032   0.060   0.047   0.039   0.022
  13  4.092   0.572   0.469   0.755   0.576   0.562   0.290   0.362   0.350
              0.048   0.035   0.031   0.019   0.023
  14  4.094   0.571   0.469   0.726   0.608   0.558   0.303   0.351   0.351
              0.044   0.031   0.035   0.024   0.021
  15  4.093   0.572   0.469   0.742   0.593   0.558   0.295   0.356   0.351
              0.046   0.033   0.034   0.022   0.021
  16  4.094   0.571   0.469   0.741   0.590   0.562   0.298   0.358   0.350
              0.046   0.033   0.033   0.021   0.023

Species: H                   
Atom  Qatom  Qorb
               1s      1s      1Ppy    1Ppz    1Ppx    
  17  1.211   0.786   0.323   0.042   0.028   0.031
  18  1.211   0.786   0.323   0.041   0.030   0.031
  19  1.210   0.786   0.323   0.041   0.029   0.031
  20  1.210   0.786   0.323   0.042   0.028   0.031

mulliken: Qtot =       72.000

cgvc: Finished line minimization    1.  Mean atomic displacement =    0.0249

* Maximum dynamic memory allocated =   116 MB

siesta:                 ==============================
                            Begin CG move =      3
                        ==============================

outcoor: Atomic coordinates (Ang):                          
    6.97072971   11.44851908   16.84096304   1       1  N
    7.54228689    7.08275739   17.04274573   1       2  N
    7.33126500   11.26221261    8.48289996   1       3  N
    7.90818469    6.89301375    8.52361457   1       4  N
    7.25630674   10.35785080   13.35860537   2       5  C
    7.31413758   10.32790316   12.02113642   2       6  C
    7.38328678    9.16217644   14.14489768   2       7  C
    7.57556198    7.93079895   13.42721578   2       8  C
    7.63333993    7.90080541   12.08839785   2       9  C
    7.50603464    9.09877736   11.30287905   2      10  C
    7.32013680    9.20884859   15.55576387   2      11  C
    7.56463987    9.08225183    9.89100205   2      12  C
    7.12882134   10.44071564   16.24262528   2      13  C
    7.44427951    8.03326028   16.34623660   2      14  C
    7.43545937   10.28208821    9.13636801   2      15  C
    7.75324622    7.87299150    9.16697618   2      16  C
    7.10812378   11.31867268   13.87266869   3      17  H
    7.21261524   11.26446384   11.45384421   3      18  H
    7.67623340    6.99692191   14.00441385   3      19  H
    7.78145640    6.94220367   11.56432490   3      20  H

outcell: Unit cell vectors (Ang):
       15.000000    0.000000    0.000000
        0.000000   25.000000    0.000000
        0.000000    0.000000   25.000000

outcell: Cell vector modules (Ang)   :   15.000000   25.000000   25.000000
outcell: Cell angles (23,13,12) (deg):     90.0000     90.0000     90.0000
outcell: Cell volume (Ang**3)        :   9375.0000
New_DM. Step:     4
Re-using DM from previous geometry...
Re-using DM without extrapolation (not allowed)

siesta: iscf   Eharris(eV)      E_KS(eV)   FreeEng(eV)   dDmax  Ef(eV)
siesta:    1    -3124.4186    -3124.0400    -3124.0400  0.0242 -6.5188
siesta:    2    -3124.6061    -3124.3251    -3124.3251  0.0448 -6.3752
siesta:    3    -3124.3982    -3124.2125    -3124.2125  0.0100 -6.4236
siesta:    4    -3124.3956    -3124.3499    -3124.3499  0.0043 -6.4356
siesta:    5    -3124.3928    -3124.3697    -3124.3697  0.0017 -6.4381
siesta:    6    -3124.3923    -3124.3769    -3124.3769  0.0011 -6.4425
siesta:    7    -3124.3922    -3124.3845    -3124.3845  0.0004 -6.4427
siesta:    8    -3124.3922    -3124.3893    -3124.3893  0.0001 -6.4431
siesta:    9    -3124.3922    -3124.3901    -3124.3901  0.0001 -6.4433
siesta:   10    -3124.3922    -3124.3908    -3124.3908  0.0000 -6.4434
siesta:   11    -3124.3922    -3124.3916    -3124.3916  0.0000 -6.4434
siesta:   12    -3124.3922    -3124.3920    -3124.3920  0.0000 -6.4434
siesta:   13    -3124.3922    -3124.3921    -3124.3921  0.0000 -6.4434
siesta:   14    -3124.3922    -3124.3922    -3124.3922  0.0000 -6.4434
siesta:   15    -3124.3922    -3124.3922    -3124.3922  0.0000 -6.4434
siesta:   16    -3124.3922    -3124.3922    -3124.3922  0.0000 -6.4434
siesta:   17    -3124.3922    -3124.3922    -3124.3922  0.0000 -6.4434

siesta: E_KS(eV) =            -3124.3922

siesta: Atomic forces (eV/Ang):
     1   -0.035332    0.226166    0.055696
     2    0.028964   -0.262334    0.074714
     3   -0.031971    0.224541   -0.060114
     4    0.033483   -0.260725   -0.058176
     5   -0.127510    0.443062    1.704932
     6    0.020848    0.370719   -1.725523
     7   -0.017145    0.044457    0.280770
     8   -0.020300   -0.403062    1.836728
     9    0.136752   -0.480329   -1.808197
    10    0.007911    0.029906   -0.291323
    11    0.035682   -0.042563   -0.720608
    12   -0.028803   -0.009703    0.731792
    13   -0.037213    0.188601    0.312979
    14    0.007875   -0.162242    0.334514
    15   -0.009781    0.168020   -0.320317
    16    0.037713   -0.184503   -0.328561
    17   -0.034674    0.210480    0.172185
    18   -0.019638    0.204159   -0.184152
    19    0.016186   -0.150095    0.100258
    20    0.024373   -0.156237   -0.089559
----------------------------------------
   Tot   -0.012580   -0.001681    0.018036
----------------------------------------
   Max    1.836728
   Res    0.508898    sqrt( Sum f_i^2 / 3N )
----------------------------------------
   Max    1.836728    constrained

Stress-tensor-Voigt (kbar):       -0.02       -1.12       -1.32        0.15        0.00        0.05
(Free)E + p*V (eV/cell)    -3119.5887
Target enthalpy (eV/cell)    -3124.3922

mulliken: Mulliken Atomic and Orbital Populations:

Species: N                   
Atom  Qatom  Qorb
               2s      2s      2py     2pz     2px     2py     2pz     2px     
               2Pdxy   2Pdyz   2Pdz2   2Pdxz   2Pdx2-y2
   1  4.940   0.877   0.562   1.070   0.914   0.841   0.209   0.196   0.195
              0.019   0.019   0.016   0.007   0.015
   2  4.938   0.874   0.564   1.049   0.939   0.838   0.206   0.199   0.195
              0.017   0.017   0.019   0.009   0.013
   3  4.940   0.877   0.563   1.058   0.928   0.838   0.208   0.197   0.195
              0.018   0.018   0.018   0.008   0.014
   4  4.939   0.875   0.564   1.061   0.924   0.841   0.207   0.197   0.195
              0.018   0.018   0.018   0.008   0.014

Species: C                   
Atom  Qatom  Qorb
               2s      2s      2py     2pz     2px     2py     2pz     2px     
               2Pdxy   2Pdyz   2Pdz2   2Pdxz   2Pdx2-y2
   5  3.785   0.184   0.689   0.212   0.441   0.596   0.702   0.532   0.295
              0.014   0.046   0.031   0.032   0.011
   6  3.785   0.185   0.688   0.227   0.420   0.600   0.690   0.549   0.292
              0.015   0.047   0.030   0.031   0.011
   7  3.909   0.264   0.665   0.503   0.563   0.542   0.443   0.408   0.324
              0.036   0.049   0.040   0.047   0.025
   8  3.787   0.187   0.688   0.232   0.414   0.602   0.686   0.555   0.291
              0.015   0.048   0.029   0.031   0.011
   9  3.786   0.188   0.687   0.214   0.436   0.598   0.700   0.536   0.294
              0.014   0.047   0.031   0.032   0.010
  10  3.909   0.265   0.664   0.502   0.562   0.542   0.443   0.409   0.324
              0.036   0.049   0.040   0.047   0.025
  11  4.036   0.205   0.707   0.614   0.500   0.574   0.357   0.482   0.403
              0.032   0.059   0.046   0.037   0.022
  12  4.035   0.203   0.708   0.615   0.500   0.574   0.355   0.481   0.403
              0.032   0.059   0.046   0.037   0.022
  13  4.095   0.573   0.464   0.764   0.576   0.558   0.286   0.363   0.355
              0.049   0.035   0.031   0.019   0.023
  14  4.098   0.574   0.463   0.733   0.609   0.554   0.300   0.351   0.356
              0.045   0.031   0.035   0.024   0.021
  15  4.096   0.573   0.464   0.750   0.594   0.554   0.291   0.357   0.356
              0.047   0.033   0.034   0.022   0.021
  16  4.097   0.573   0.464   0.748   0.590   0.558   0.294   0.359   0.355
              0.047   0.033   0.033   0.021   0.022

Species: H                   
Atom  Qatom  Qorb
               1s      1s      1Ppy    1Ppz    1Ppx    
  17  1.207   0.784   0.322   0.042   0.028   0.030
  18  1.207   0.784   0.322   0.041   0.030   0.030
  19  1.206   0.784   0.322   0.040   0.030   0.030
  20  1.206   0.784   0.322   0.041   0.028   0.030

mulliken: Qtot =       72.000

* Maximum dynamic memory allocated =   116 MB

siesta:                 ==============================
                            Begin CG move =      4
                        ==============================

outcoor: Atomic coordinates (Ang):                          
    6.97071276   11.44869366   16.84143496   1       1  N
    7.54226935    7.08284765   17.04331177   1       2  N
    7.33129779   11.26237675    8.48234851   1       3  N
    7.90822187    6.89308810    8.52305584   1       4  N
    7.25660211   10.35359722   13.36531803   2       5  C
    7.31500281   10.32334768   12.01465491   2       6  C
    7.38310342    9.16260036   14.14789955   2       7  C
    7.57469000    7.93509588   13.43466232   2       8  C
    7.63311764    7.90476983   12.08075022   2       9  C
    7.50612475    9.09901222   11.29982583   2      10  C
    7.32046170    9.20858046   15.54852236   2      11  C
    7.56434627    9.08233413    9.89826171   2      12  C
    7.12921112   10.43840379   16.24038049   2      13  C
    7.44408514    8.03550607   16.34365512   2      14  C
    7.43565464   10.27989942    9.13873302   2      15  C
    7.75283126    7.87534573    9.16940368   2      16  C
    7.10875358   11.31479806   13.86976514   3      17  H
    7.21298406   11.26074454   11.45693944   3      18  H
    7.67587882    7.00037860   14.00176552   3      19  H
    7.78088187    6.94579295   11.56679217   3      20  H

outcell: Unit cell vectors (Ang):
       15.000000    0.000000    0.000000
        0.000000   25.000000    0.000000
        0.000000    0.000000   25.000000

outcell: Cell vector modules (Ang)   :   15.000000   25.000000   25.000000
outcell: Cell angles (23,13,12) (deg):     90.0000     90.0000     90.0000
outcell: Cell volume (Ang**3)        :   9375.0000
New_DM. Step:     5
Re-using DM from previous geometry...
Re-using DM without extrapolation (not allowed)

siesta: iscf   Eharris(eV)      E_KS(eV)   FreeEng(eV)   dDmax  Ef(eV)
siesta:    1    -3124.4192    -3124.5376    -3124.5376  0.0093 -6.4016
siesta:    2    -3124.4497    -3124.4044    -3124.4044  0.0184 -6.5209
siesta:    3    -3124.4159    -3124.4722    -3124.4722  0.0040 -6.4379
siesta:    4    -3124.4156    -3124.4185    -3124.4185  0.0018 -6.4329
siesta:    5    -3124.4151    -3124.4152    -3124.4152  0.0004 -6.4283
siesta:    6    -3124.4151    -3124.4146    -3124.4146  0.0004 -6.4283
siesta:    7    -3124.4151    -3124.4147    -3124.4147  0.0001 -6.4282
siesta:    8    -3124.4151    -3124.4148    -3124.4148  0.0000 -6.4280
siesta:    9    -3124.4151    -3124.4149    -3124.4149  0.0000 -6.4280
siesta:   10    -3124.4151    -3124.4149    -3124.4149  0.0000 -6.4279
siesta:   11    -3124.4151    -3124.4150    -3124.4150  0.0000 -6.4279
siesta:   12    -3124.4150    -3124.4150    -3124.4150  0.0000 -6.4279
siesta:   13    -3124.4151    -3124.4150    -3124.4150  0.0000 -6.4279
siesta:   14    -3124.4151    -3124.4150    -3124.4150  0.0000 -6.4279

siesta: E_KS(eV) =            -3124.4150

siesta: Atomic forces (eV/Ang):
     1    0.013834   -0.090942   -0.123201
     2   -0.002574    0.041329   -0.137457
     3    0.001265   -0.084404    0.136424
     4   -0.015199    0.048435    0.135341
     5   -0.095923    0.491449    0.756449
     6   -0.029594    0.464901   -0.778880
     7   -0.001331    0.007352    0.020683
     8    0.031225   -0.468696    0.790639
     9    0.097920   -0.501497   -0.760354
    10    0.000570    0.006258   -0.022944
    11    0.009560   -0.016332   -0.167379
    12   -0.006681   -0.007780    0.172792
    13   -0.085970    0.507518    0.473125
    14    0.041311   -0.472469    0.530010
    15   -0.043621    0.480335   -0.498515
    16    0.086613   -0.499744   -0.503589
    17   -0.053131    0.324422    0.255052
    18   -0.030445    0.312149   -0.270638
    19    0.027489   -0.263468    0.194357
    20    0.043685   -0.274482   -0.178699
----------------------------------------
   Tot   -0.010998    0.004335    0.023214
----------------------------------------
   Max    0.790639
   Res    0.317027    sqrt( Sum f_i^2 / 3N )
----------------------------------------
   Max    0.790639    constrained

Stress-tensor-Voigt (kbar):       -0.02       -1.13       -1.22        0.15        0.00        0.05
(Free)E + p*V (eV/cell)    -3119.7852
Target enthalpy (eV/cell)    -3124.4150

mulliken: Mulliken Atomic and Orbital Populations:

Species: N                   
Atom  Qatom  Qorb
               2s      2s      2py     2pz     2px     2py     2pz     2px     
               2Pdxy   2Pdyz   2Pdz2   2Pdxz   2Pdx2-y2
   1  4.941   0.883   0.560   1.068   0.916   0.844   0.209   0.194   0.193
              0.018   0.019   0.016   0.007   0.015
   2  4.939   0.880   0.561   1.047   0.941   0.840   0.205   0.197   0.193
              0.016   0.017   0.019   0.009   0.013
   3  4.941   0.882   0.560   1.056   0.930   0.841   0.207   0.196   0.193
              0.018   0.018   0.018   0.008   0.014
   4  4.940   0.880   0.561   1.059   0.926   0.843   0.207   0.195   0.193
              0.017   0.018   0.018   0.008   0.014

Species: C                   
Atom  Qatom  Qorb
               2s      2s      2py     2pz     2px     2py     2pz     2px     
               2Pdxy   2Pdyz   2Pdz2   2Pdxz   2Pdx2-y2
   5  3.783   0.184   0.691   0.209   0.439   0.600   0.707   0.530   0.291
              0.014   0.045   0.031   0.032   0.011
   6  3.783   0.185   0.690   0.223   0.418   0.604   0.694   0.548   0.288
              0.015   0.047   0.030   0.031   0.011
   7  3.912   0.252   0.669   0.505   0.571   0.535   0.444   0.406   0.332
              0.036   0.050   0.041   0.048   0.025
   8  3.785   0.188   0.689   0.228   0.411   0.607   0.690   0.553   0.286
              0.015   0.047   0.029   0.030   0.011
   9  3.784   0.188   0.689   0.211   0.433   0.603   0.704   0.534   0.289
              0.014   0.046   0.031   0.031   0.010
  10  3.911   0.252   0.668   0.503   0.572   0.535   0.444   0.406   0.332
              0.036   0.050   0.041   0.048   0.025
  11  4.035   0.200   0.708   0.611   0.507   0.569   0.358   0.478   0.406
              0.032   0.060   0.047   0.038   0.022
  12  4.034   0.198   0.709   0.613   0.506   0.569   0.357   0.478   0.406
              0.032   0.060   0.047   0.038   0.022
  13  4.094   0.572   0.466   0.760   0.576   0.559   0.287   0.363   0.353
              0.049   0.035   0.031   0.019   0.023
  14  4.096   0.573   0.466   0.730   0.609   0.556   0.301   0.351   0.354
              0.044   0.031   0.035   0.024   0.021
  15  4.095   0.572   0.466   0.747   0.594   0.556   0.292   0.356   0.354
              0.047   0.033   0.034   0.022   0.021
  16  4.096   0.572   0.466   0.745   0.590   0.559   0.296   0.358   0.353
              0.047   0.033   0.033   0.021   0.023

Species: H                   
Atom  Qatom  Qorb
               1s      1s      1Ppy    1Ppz    1Ppx    
  17  1.208   0.784   0.323   0.042   0.028   0.031
  18  1.208   0.785   0.322   0.041   0.030   0.030
  19  1.207   0.785   0.322   0.041   0.030   0.030
  20  1.207   0.784   0.322   0.042   0.028   0.031

mulliken: Qtot =       72.000

cgvc: Finished line minimization    2.  Mean atomic displacement =    0.0151

* Maximum dynamic memory allocated =   116 MB

siesta:                 ==============================
                            Begin CG move =      5
                        ==============================

outcoor: Atomic coordinates (Ang):                          
    6.97091336   11.44734772   16.83951016   1       1  N
    7.54224093    7.08338627   17.04114723   1       2  N
    7.33130133   11.26112665    8.48449233   1       3  N
    7.90799347    6.89373286    8.52518767   1       4  N
    7.25513452   10.36229666   13.37299630   2       5  C
    7.31421657   10.33180621   12.00656363   2       6  C
    7.38316381    9.16252048   14.14689540   2       7  C
    7.57550194    7.92669570   13.44250218   2       8  C
    7.63458165    7.89605456   12.07342015   2       9  C
    7.50609389    9.09899849   11.30082050   2      10  C
    7.32045532    9.20846775   15.54930306   2      11  C
    7.56437940    9.08218997    9.89754882   2      12  C
    7.12784194   10.44649130   16.24795854   2      13  C
    7.44474611    8.02793676   16.35217307   2      14  C
    7.43496100   10.28755408    9.13074841   2      15  C
    7.75422027    7.86734860    9.16132125   2      16  C
    7.10773987   11.32100035   13.87457980   3      17  H
    7.21239977   11.26670843   11.45182441   3      18  H
    7.67641568    6.99520805   14.00562214   3      19  H
    7.78173979    6.94041138   11.56323234   3      20  H

outcell: Unit cell vectors (Ang):
       15.000000    0.000000    0.000000
        0.000000   25.000000    0.000000
        0.000000    0.000000   25.000000

outcell: Cell vector modules (Ang)   :   15.000000   25.000000   25.000000
outcell: Cell angles (23,13,12) (deg):     90.0000     90.0000     90.0000
outcell: Cell volume (Ang**3)        :   9375.0000
New_DM. Step:     6
Re-using DM from previous geometry...
Re-using DM without extrapolation (not allowed)

siesta: iscf   Eharris(eV)      E_KS(eV)   FreeEng(eV)   dDmax  Ef(eV)
siesta:    1    -3124.4590    -3124.1025    -3124.1025  0.0269 -6.5484
siesta:    2    -3124.6547    -3124.3762    -3124.3762  0.0478 -6.4341
siesta:    3    -3124.4405    -3124.2347    -3124.2347  0.0098 -6.4688
siesta:    4    -3124.4395    -3124.3901    -3124.3901  0.0038 -6.4600
siesta:    5    -3124.4387    -3124.4093    -3124.4093  0.0023 -6.4598
siesta:    6    -3124.4383    -3124.4214    -3124.4214  0.0018 -6.4646
siesta:    7    -3124.4383    -3124.4308    -3124.4308  0.0005 -6.4684
siesta:    8    -3124.4383    -3124.4362    -3124.4362  0.0001 -6.4686
siesta:    9    -3124.4383    -3124.4369    -3124.4369  0.0000 -6.4685
siesta:   10    -3124.4383    -3124.4374    -3124.4374  0.0000 -6.4685
siesta:   11    -3124.4383    -3124.4380    -3124.4380  0.0000 -6.4683
siesta:   12    -3124.4383    -3124.4381    -3124.4381  0.0000 -6.4683
siesta:   13    -3124.4383    -3124.4382    -3124.4382  0.0000 -6.4683
siesta:   14    -3124.4383    -3124.4382    -3124.4382  0.0000 -6.4683
siesta:   15    -3124.4383    -3124.4382    -3124.4382  0.0000 -6.4683
siesta:   16    -3124.4383    -3124.4383    -3124.4383  0.0000 -6.4683
siesta:   17    -3124.4383    -3124.4383    -3124.4383  0.0000 -6.4683

siesta: E_KS(eV) =            -3124.4383

siesta: Atomic forces (eV/Ang):
     1   -0.167356    1.064153    0.565682
     2    0.108026   -1.029964    0.649952
     3   -0.116945    1.034052   -0.612660
     4    0.161301   -1.064237   -0.599182
     5   -0.017766    0.193803   -0.182917
     6   -0.032461    0.195148    0.180213
     7   -0.009284    0.011051    0.202707
     8    0.029227   -0.173072   -0.149628
     9    0.015870   -0.168091    0.155838
    10    0.007613    0.005875   -0.198103
    11   -0.003883   -0.005643    0.134781
    12    0.006997   -0.017360   -0.130860
    13    0.148753   -0.994277   -0.415493
    14   -0.103873    0.932374   -0.494008
    15    0.109996   -0.973775    0.468568
    16   -0.143271    0.955697    0.444169
    17   -0.067787    0.411984    0.328739
    18   -0.039031    0.401414   -0.351920
    19    0.039098   -0.383701    0.300077
    20    0.063607   -0.396093   -0.274417
----------------------------------------
   Tot   -0.011170   -0.000664    0.021538
----------------------------------------
   Max    1.064237
   Res    0.446823    sqrt( Sum f_i^2 / 3N )
----------------------------------------
   Max    1.064237    constrained

Stress-tensor-Voigt (kbar):       -0.03       -1.50       -1.04        0.20        0.02        0.04
(Free)E + p*V (eV/cell)    -3119.4249
Target enthalpy (eV/cell)    -3124.4383

mulliken: Mulliken Atomic and Orbital Populations:

Species: N                   
Atom  Qatom  Qorb
               2s      2s      2py     2pz     2px     2py     2pz     2px     
               2Pdxy   2Pdyz   2Pdz2   2Pdxz   2Pdx2-y2
   1  4.936   0.862   0.569   1.075   0.911   0.833   0.209   0.200   0.202
              0.019   0.019   0.016   0.007   0.015
   2  4.935   0.860   0.570   1.052   0.938   0.829   0.206   0.202   0.202
              0.017   0.017   0.019   0.009   0.013
   3  4.936   0.862   0.569   1.063   0.927   0.830   0.208   0.201   0.202
              0.018   0.018   0.018   0.008   0.014
   4  4.935   0.860   0.570   1.065   0.922   0.832   0.208   0.200   0.202
              0.018   0.018   0.018   0.008   0.014

Species: C                   
Atom  Qatom  Qorb
               2s      2s      2py     2pz     2px     2py     2pz     2px     
               2Pdxy   2Pdyz   2Pdz2   2Pdxz   2Pdx2-y2
   5  3.782   0.188   0.692   0.206   0.433   0.606   0.709   0.532   0.285
              0.014   0.045   0.031   0.031   0.011
   6  3.781   0.189   0.691   0.221   0.412   0.610   0.696   0.549   0.281
              0.015   0.046   0.030   0.030   0.011
   7  3.914   0.255   0.668   0.502   0.572   0.536   0.445   0.406   0.332
              0.037   0.050   0.041   0.048   0.025
   8  3.783   0.190   0.691   0.225   0.406   0.613   0.692   0.555   0.280
              0.015   0.046   0.030   0.030   0.011
   9  3.782   0.191   0.690   0.207   0.428   0.609   0.707   0.536   0.283
              0.014   0.045   0.031   0.031   0.011
  10  3.914   0.255   0.668   0.501   0.573   0.536   0.444   0.406   0.332
              0.037   0.050   0.041   0.048   0.025
  11  4.034   0.211   0.705   0.600   0.507   0.580   0.364   0.475   0.398
              0.031   0.059   0.045   0.037   0.022
  12  4.034   0.209   0.706   0.602   0.507   0.579   0.362   0.475   0.398
              0.031   0.059   0.045   0.037   0.022
  13  4.099   0.581   0.458   0.770   0.577   0.557   0.280   0.364   0.357
              0.049   0.035   0.032   0.019   0.023
  14  4.101   0.581   0.458   0.739   0.610   0.553   0.295   0.351   0.358
              0.044   0.031   0.035   0.024   0.021
  15  4.100   0.580   0.458   0.756   0.595   0.553   0.286   0.357   0.358
              0.047   0.032   0.034   0.022   0.021
  16  4.101   0.581   0.458   0.754   0.591   0.557   0.289   0.359   0.357
              0.047   0.033   0.033   0.021   0.022

Species: H                   
Atom  Qatom  Qorb
               1s      1s      1Ppy    1Ppz    1Ppx    
  17  1.209   0.784   0.323   0.042   0.028   0.031
  18  1.209   0.784   0.323   0.041   0.030   0.031
  19  1.208   0.784   0.323   0.041   0.030   0.031
  20  1.208   0.784   0.323   0.042   0.028   0.031

mulliken: Qtot =       72.000

* Maximum dynamic memory allocated =   116 MB

siesta:                 ==============================
                            Begin CG move =      6
                        ==============================

outcoor: Atomic coordinates (Ang):                          
    6.97085019   11.44777159   16.84011633   1       1  N
    7.54224988    7.08321664   17.04182891   1       2  N
    7.33130022   11.26152034    8.48381718   1       3  N
    7.90806540    6.89352981    8.52451630   1       4  N
    7.25559670   10.35955696   13.37057820   2       5  C
    7.31446418   10.32914238   12.00911180   2       6  C
    7.38314479    9.16254564   14.14721164   2       7  C
    7.57524623    7.92934115   13.44003319   2       8  C
    7.63412059    7.89879924   12.07572860   2       9  C
    7.50610361    9.09900281   11.30050725   2      10  C
    7.32045733    9.20850325   15.54905720   2      11  C
    7.56436897    9.08223537    9.89777333   2      12  C
    7.12827313   10.44394432   16.24557200   2      13  C
    7.44453795    8.03032055   16.34949053   2      14  C
    7.43517945   10.28514342    9.13326299   2      15  C
    7.75378283    7.86986712    9.16386663   2      16  C
    7.10805912   11.31904708   13.87306353   3      17  H
    7.21258378   11.26483023   11.45343528   3      18  H
    7.67624661    6.99683640   14.00440758   3      19  H
    7.78146961    6.94210619   11.56435343   3      20  H

outcell: Unit cell vectors (Ang):
       15.000000    0.000000    0.000000
        0.000000   25.000000    0.000000
        0.000000    0.000000   25.000000

outcell: Cell vector modules (Ang)   :   15.000000   25.000000   25.000000
outcell: Cell angles (23,13,12) (deg):     90.0000     90.0000     90.0000
outcell: Cell volume (Ang**3)        :   9375.0000
New_DM. Step:     7
Re-using DM from previous geometry...
Re-using DM without extrapolation (not allowed)

siesta: iscf   Eharris(eV)      E_KS(eV)   FreeEng(eV)   dDmax  Ef(eV)
siesta:    1    -3124.4464    -3124.5458    -3124.5458  0.0086 -6.4329
siesta:    2    -3124.4665    -3124.4381    -3124.4381  0.0157 -6.5188
siesta:    3    -3124.4445    -3124.5027    -3124.5027  0.0031 -6.4540
siesta:    4    -3124.4444    -3124.4521    -3124.4521  0.0011 -6.4576
siesta:    5    -3124.4443    -3124.4478    -3124.4478  0.0007 -6.4556
siesta:    6    -3124.4443    -3124.4463    -3124.4463  0.0006 -6.4548
siesta:    7    -3124.4443    -3124.4450    -3124.4450  0.0001 -6.4536
siesta:    8    -3124.4443    -3124.4443    -3124.4443  0.0000 -6.4535
siesta:    9    -3124.4443    -3124.4442    -3124.4442  0.0000 -6.4536
siesta:   10    -3124.4443    -3124.4443    -3124.4443  0.0000 -6.4536
siesta:   11    -3124.4443    -3124.4443    -3124.4443  0.0000 -6.4536
siesta:   12    -3124.4443    -3124.4443    -3124.4443  0.0000 -6.4536
siesta:   13    -3124.4443    -3124.4443    -3124.4443  0.0000 -6.4536
siesta:   14    -3124.4443    -3124.4443    -3124.4443  0.0000 -6.4536

siesta: E_KS(eV) =            -3124.4443

siesta: Atomic forces (eV/Ang):
     1   -0.107972    0.688179    0.342339
     2    0.071837   -0.679297    0.393450
     3   -0.078090    0.668530   -0.368309
     4    0.103520   -0.701929   -0.361250
     5   -0.042203    0.286930    0.106711
     6   -0.031503    0.279538   -0.117512
     7   -0.006842    0.010100    0.146352
     8    0.029881   -0.266666    0.139161
     9    0.041810   -0.274069   -0.128305
    10    0.005493    0.005713   -0.143488
    11    0.000283   -0.008511    0.041453
    12    0.002912   -0.014897   -0.036769
    13    0.073374   -0.510709   -0.130058
    14   -0.057003    0.479002   -0.165433
    15    0.060712   -0.506370    0.158506
    16   -0.069891    0.489040    0.140004
    17   -0.063020    0.383806    0.304554
    18   -0.036306    0.373045   -0.326109
    19    0.035389   -0.345137    0.266672
    20    0.057219   -0.357127   -0.244052
----------------------------------------
   Tot   -0.010400   -0.000829    0.017919
----------------------------------------
   Max    0.701929
   Res    0.283724    sqrt( Sum f_i^2 / 3N )
----------------------------------------
   Max    0.701929    constrained

Stress-tensor-Voigt (kbar):       -0.03       -1.37       -1.09        0.18        0.01        0.04
(Free)E + p*V (eV/cell)    -3119.5774
Target enthalpy (eV/cell)    -3124.4443

mulliken: Mulliken Atomic and Orbital Populations:

Species: N                   
Atom  Qatom  Qorb
               2s      2s      2py     2pz     2px     2py     2pz     2px     
               2Pdxy   2Pdyz   2Pdz2   2Pdxz   2Pdx2-y2
   1  4.938   0.869   0.566   1.073   0.913   0.836   0.209   0.198   0.199
              0.019   0.019   0.016   0.007   0.015
   2  4.936   0.866   0.567   1.051   0.939   0.833   0.206   0.200   0.199
              0.017   0.017   0.019   0.009   0.013
   3  4.938   0.868   0.566   1.061   0.928   0.833   0.208   0.199   0.199
              0.018   0.018   0.018   0.008   0.014
   4  4.936   0.866   0.567   1.063   0.924   0.836   0.207   0.199   0.199
              0.018   0.018   0.018   0.008   0.014

Species: C                   
Atom  Qatom  Qorb
               2s      2s      2py     2pz     2px     2py     2pz     2px     
               2Pdxy   2Pdyz   2Pdz2   2Pdxz   2Pdx2-y2
   5  3.782   0.186   0.691   0.207   0.434   0.604   0.708   0.531   0.287
              0.014   0.045   0.031   0.031   0.011
   6  3.782   0.188   0.691   0.222   0.414   0.608   0.695   0.549   0.283
              0.015   0.046   0.030   0.030   0.011
   7  3.914   0.254   0.668   0.503   0.572   0.535   0.444   0.406   0.332
              0.036   0.050   0.041   0.048   0.025
   8  3.783   0.189   0.690   0.226   0.407   0.611   0.691   0.554   0.282
              0.015   0.047   0.030   0.030   0.011
   9  3.783   0.190   0.690   0.208   0.429   0.607   0.706   0.535   0.285
              0.014   0.045   0.031   0.031   0.011
  10  3.913   0.254   0.668   0.502   0.572   0.536   0.444   0.406   0.332
              0.036   0.050   0.041   0.048   0.025
  11  4.034   0.207   0.706   0.603   0.507   0.576   0.362   0.476   0.400
              0.031   0.059   0.046   0.038   0.022
  12  4.034   0.205   0.707   0.605   0.507   0.576   0.361   0.476   0.400
              0.031   0.059   0.046   0.038   0.022
  13  4.098   0.578   0.461   0.767   0.577   0.557   0.282   0.363   0.355
              0.049   0.035   0.032   0.019   0.023
  14  4.100   0.579   0.460   0.736   0.610   0.554   0.297   0.351   0.357
              0.044   0.031   0.035   0.024   0.021
  15  4.098   0.578   0.461   0.753   0.595   0.554   0.288   0.357   0.357
              0.047   0.032   0.034   0.022   0.021
  16  4.100   0.578   0.461   0.751   0.591   0.558   0.291   0.359   0.355
              0.047   0.033   0.033   0.021   0.022

Species: H                   
Atom  Qatom  Qorb
               1s      1s      1Ppy    1Ppz    1Ppx    
  17  1.208   0.784   0.323   0.042   0.028   0.031
  18  1.209   0.784   0.323   0.041   0.030   0.031
  19  1.208   0.784   0.323   0.041   0.030   0.031
  20  1.208   0.784   0.323   0.042   0.028   0.031

mulliken: Qtot =       72.000

cgvc: Finished line minimization    3.  Mean atomic displacement =    0.0104

* Maximum dynamic memory allocated =   117 MB

siesta:                 ==============================
                            Begin CG move =      7
                        ==============================

outcoor: Atomic coordinates (Ang):                          
    6.97007038   11.45271024   16.84198432   1       1  N
    7.54281799    7.07797121   17.04399813   1       2  N
    7.33066983   11.26634491    8.48184172   1       3  N
    7.90879614    6.88815098    8.52259235   1       4  N
    7.25456676   10.36595975   13.37504335   2       5  C
    7.31384042   10.33537234   12.00436551   2       6  C
    7.38311774    9.16258992   14.14792519   2       7  C
    7.57586892    7.92324275   13.44483678   2       8  C
    7.63514568    7.89249313   12.07125199   2       9  C
    7.50613360    9.09904261   11.29981244   2      10  C
    7.32045662    9.20838150   15.54975889   2      11  C
    7.56440808    9.08204717    9.89714136   2      12  C
    7.12822479   10.44360418   16.24807380   2      13  C
    7.44438661    8.03064712   16.35214686   2      14  C
    7.43534548   10.28463536    9.13080075   2      15  C
    7.75386867    7.87007427    9.16120876   2      16  C
    7.10707357   11.32506267   13.87778682   3      17  H
    7.21201587   11.27064692   11.44839664   3      18  H
    7.67678485    6.99161772   14.00837489   3      19  H
    7.78233513    6.93669148   11.56070840   3      20  H

outcell: Unit cell vectors (Ang):
       15.000000    0.000000    0.000000
        0.000000   25.000000    0.000000
        0.000000    0.000000   25.000000

outcell: Cell vector modules (Ang)   :   15.000000   25.000000   25.000000
outcell: Cell angles (23,13,12) (deg):     90.0000     90.0000     90.0000
outcell: Cell volume (Ang**3)        :   9375.0000
New_DM. Step:     8
[...]
              0.036   0.049   0.041   0.046   0.025
  11  4.033   0.218   0.701   0.602   0.498   0.583   0.360   0.482   0.396
              0.031   0.059   0.045   0.037   0.021
  12  4.033   0.218   0.701   0.602   0.498   0.583   0.360   0.482   0.396
              0.031   0.060   0.045   0.037   0.021
  13  4.101   0.584   0.461   0.772   0.575   0.562   0.279   0.363   0.350
              0.048   0.035   0.030   0.018   0.024
  14  4.100   0.583   0.461   0.756   0.594   0.559   0.284   0.356   0.351
              0.046   0.033   0.033   0.022   0.022
  15  4.100   0.583   0.461   0.755   0.594   0.558   0.285   0.356   0.352
              0.046   0.033   0.033   0.022   0.022
  16  4.101   0.584   0.461   0.772   0.575   0.561   0.279   0.363   0.351
              0.049   0.035   0.030   0.018   0.023

Species: H                   
Atom  Qatom  Qorb
               1s      1s      1Ppy    1Ppz    1Ppx    
  17  1.201   0.779   0.322   0.041   0.029   0.030
  18  1.201   0.779   0.322   0.040   0.030   0.030
  19  1.201   0.779   0.322   0.040   0.030   0.030
  20  1.201   0.778   0.322   0.041   0.029   0.030

mulliken: Qtot =       72.000

* Maximum dynamic memory allocated =   150 MB

siesta:                 ==============================
                            Begin CG move =    300
                        ==============================

outcoor: Atomic coordinates (Ang):                          
    6.94404988   11.48566579   16.86207105   1       1  N
    7.58496542    7.05141551   16.99818973   1       2  N
    7.30794831   11.28257304    8.46222301   1       3  N
    7.88560933    6.84221818    8.59872569   1       4  N
    7.24044326   10.41855945   13.38227035   2       5  C
    7.29595362   10.38495362   12.00716821   2       6  C
    7.37934540    9.20158708   14.16052439   2       7  C
    7.57794166    7.94860860   13.45578420   2       8  C
    7.63055830    7.91461764   12.08057153   2       9  C
    7.49181606    9.13165663   11.30234829   2      10  C
    7.32179889    9.23536783   15.57240241   2      11  C
    7.54576652    9.09738812    9.89037792   2      12  C
    7.11672232   10.46396845   16.28819779   2      13  C
    7.46410256    8.04319022   16.36173545   2      14  C
    7.41559989   10.29054470    9.10059905   2      15  C
    7.73269552    7.86624358    9.17402389   2      16  C
    7.08939925   11.37847745   13.91257785   3      17  H
    7.19008426   11.31739819   11.41987716   3      18  H
    7.68524570    7.01631983   14.04313690   3      19  H
    7.78029021    6.95438678   11.55032411   3      20  H

outcell: Unit cell vectors (Ang):
       15.000000    0.000000    0.000000
        0.000000   25.000000    0.000000
        0.000000    0.000000   25.000000

outcell: Cell vector modules (Ang)   :   15.000000   25.000000   25.000000
outcell: Cell angles (23,13,12) (deg):     90.0000     90.0000     90.0000
outcell: Cell volume (Ang**3)        :   9375.0000
New_DM. Step:   301
Re-using DM from previous geometry...
Re-using DM without extrapolation (not allowed)

siesta: iscf   Eharris(eV)      E_KS(eV)   FreeEng(eV)   dDmax  Ef(eV)
siesta:    1    -3124.5234    -3124.5232    -3124.5232  0.0000 -6.5514
siesta:    2    -3124.5234    -3124.5234    -3124.5234  0.0000 -6.5515
siesta:    3    -3124.5234    -3124.5233    -3124.5233  0.0000 -6.5515
siesta:    4    -3124.5234    -3124.5234    -3124.5234  0.0000 -6.5515
siesta:    5    -3124.5234    -3124.5234    -3124.5234  0.0000 -6.5515
siesta:    6    -3124.5234    -3124.5234    -3124.5234  0.0000 -6.5515
siesta:    7    -3124.5234    -3124.5234    -3124.5234  0.0000 -6.5515
siesta:    8    -3124.5234    -3124.5234    -3124.5234  0.0000 -6.5515
siesta:    9    -3124.5234    -3124.5234    -3124.5234  0.0000 -6.5515
siesta:   10    -3124.5234    -3124.5234    -3124.5234  0.0000 -6.5515
siesta:   11    -3124.5234    -3124.5234    -3124.5234  0.0000 -6.5515
siesta:   12    -3124.5234    -3124.5234    -3124.5234  0.0000 -6.5515

siesta: E_KS(eV) =            -3124.5234

siesta: Atomic forces (eV/Ang):
     1   -0.000479    0.002042    0.001474
     2    0.000718   -0.001193    0.001186
     3    0.000326    0.000371    0.000696
     4   -0.000694   -0.001866   -0.000671
     5    0.000004   -0.000436    0.000021
     6   -0.000219    0.000080   -0.000190
     7    0.000241   -0.000374   -0.000024
     8    0.000488   -0.000447    0.000632
     9    0.000487   -0.000779    0.000224
    10    0.000022   -0.000315    0.000456
    11   -0.000228   -0.000152   -0.000079
    12   -0.000308   -0.000637    0.000082
    13   -0.000175   -0.002515   -0.002194
    14   -0.000290    0.001393   -0.000792
    15   -0.000297   -0.000897   -0.000081
    16   -0.000517    0.001884    0.000885
    17   -0.000292    0.000820   -0.000269
    18    0.000393    0.000603   -0.000366
    19    0.000052    0.001066   -0.000796
    20    0.000352    0.000708    0.001145
----------------------------------------
   Tot   -0.000416   -0.000643    0.001338
----------------------------------------
   Max    0.002515
   Res    0.000843    sqrt( Sum f_i^2 / 3N )
----------------------------------------
   Max    0.002515    constrained

Stress-tensor-Voigt (kbar):        0.00        0.01        0.01        0.00       -0.01        0.00
(Free)E + p*V (eV/cell)    -3124.5506
Target enthalpy (eV/cell)    -3124.5234

mulliken: Mulliken Atomic and Orbital Populations:

Species: N                   
Atom  Qatom  Qorb
               2s      2s      2py     2pz     2px     2py     2pz     2px     
               2Pdxy   2Pdyz   2Pdz2   2Pdxz   2Pdx2-y2
   1  4.938   0.880   0.560   1.067   0.911   0.844   0.210   0.196   0.195
              0.019   0.019   0.016   0.007   0.015
   2  4.939   0.880   0.560   1.055   0.927   0.841   0.209   0.198   0.195
              0.018   0.018   0.017   0.008   0.014
   3  4.939   0.880   0.560   1.055   0.927   0.840   0.209   0.198   0.195
              0.018   0.018   0.017   0.008   0.014
   4  4.939   0.880   0.560   1.068   0.912   0.843   0.210   0.196   0.195
              0.019   0.019   0.016   0.007   0.015

Species: C                   
Atom  Qatom  Qorb
               2s      2s      2py     2pz     2px     2py     2pz     2px     
               2Pdxy   2Pdyz   2Pdz2   2Pdxz   2Pdx2-y2
   5  3.785   0.207   0.685   0.219   0.422   0.614   0.692   0.538   0.278
              0.014   0.046   0.031   0.030   0.010
   6  3.787   0.208   0.684   0.237   0.399   0.618   0.677   0.557   0.274
              0.015   0.047   0.029   0.029   0.011
   7  3.914   0.276   0.660   0.495   0.558   0.547   0.447   0.413   0.321
              0.036   0.049   0.041   0.046   0.025
   8  3.787   0.209   0.684   0.237   0.399   0.618   0.677   0.558   0.274
              0.015   0.047   0.029   0.029   0.011
   9  3.785   0.207   0.685   0.219   0.422   0.614   0.692   0.538   0.278
              0.014   0.046   0.031   0.030   0.010
  10  3.914   0.276   0.660   0.495   0.558   0.547   0.447   0.413   0.321
              0.036   0.049   0.041   0.046   0.025
  11  4.033   0.218   0.701   0.602   0.498   0.583   0.360   0.482   0.396
              0.031   0.059   0.045   0.037   0.021
  12  4.033   0.218   0.701   0.602   0.498   0.583   0.360   0.482   0.396
              0.031   0.060   0.045   0.037   0.021
  13  4.101   0.584   0.461   0.772   0.575   0.562   0.279   0.363   0.350
              0.048   0.035   0.030   0.018   0.024
  14  4.100   0.583   0.461   0.756   0.594   0.559   0.284   0.356   0.351
              0.046   0.033   0.033   0.022   0.022
  15  4.100   0.583   0.461   0.755   0.594   0.558   0.285   0.356   0.352
              0.046   0.033   0.033   0.022   0.022
  16  4.101   0.584   0.461   0.772   0.575   0.561   0.279   0.363   0.351
              0.049   0.035   0.030   0.018   0.023

Species: H                   
Atom  Qatom  Qorb
               1s      1s      1Ppy    1Ppz    1Ppx    
  17  1.201   0.779   0.322   0.041   0.029   0.030
  18  1.201   0.779   0.322   0.040   0.030   0.030
  19  1.201   0.779   0.322   0.040   0.030   0.030
  20  1.201   0.778   0.322   0.041   0.029   0.030

mulliken: Qtot =       72.000

cgvc: Finished line minimization  121.  Mean atomic displacement =    0.0001

* Maximum dynamic memory allocated =   150 MB

outcoor: Final (unrelaxed) atomic coordinates (Ang):        
    6.94404632   11.48563730   16.86208992   1       1  N
    7.58500879    7.05143562   16.99825701   1       2  N
    7.30794829   11.28254483    8.46226110   1       3  N
    7.88558345    6.84217648    8.59877995   1       4  N
    7.24043996   10.41853775   13.38227677   2       5  C
    7.29593581   10.38496256   12.00716167   2       6  C
    7.37936931    9.20157727   14.16055330   2       7  C
    7.57796627    7.94861020   13.45578290   2       8  C
    7.63058304    7.91463413   12.08058102   2       9  C
    7.49182569    9.13166510   11.30237273   2      10  C
    7.32180287    9.23536839   15.57240157   2      11  C
    7.54577040    9.09735771    9.89037425   2      12  C
    7.11671301   10.46393206   16.28816477   2      13  C
    7.46412307    8.04319790   16.36173563   2      14  C
    7.41559561   10.29047977    9.10059581   2      15  C
    7.73270724    7.86624477    9.17406315   2      16  C
    7.08936766   11.37847501   13.91255149   3      17  H
    7.19007933   11.31738811   11.41985215   3      18  H
    7.68526309    7.01634084   14.04316032   3      19  H
    7.78032455    6.95438105   11.55035030   3      20  H

coxmol: Writing XMOL coordinates into file TCNQ.xyz                                                        

siesta: Eigenvalues (eV):
  ik is    eps
   1  1 -23.82 -23.71 -23.31 -23.31 -23.03 -22.00 -20.81 -20.26 -18.99 -17.09
        -16.80 -15.78 -14.84 -14.70 -14.00 -12.40 -12.22 -11.95 -11.52 -11.05
        -11.00 -10.02  -9.92  -9.63  -9.60  -9.44  -9.43  -9.28  -9.25  -9.25
         -9.20  -8.95  -8.92  -8.56  -8.13  -6.84  -5.47  -2.87  -2.77  -2.18
         -2.05  -1.12  -1.01  -0.87  -0.75   0.02   0.62   1.06   1.57   1.89
          1.96   2.61   2.64   2.67   3.11   3.75   3.82   4.33   5.72   5.75
          5.95   5.99   6.32   6.48   6.66   6.83   7.18   7.51   7.76   7.79
          7.84   8.05   8.27   8.34   8.49   9.13   9.41   9.42   9.50   9.64
         10.49  10.59  11.50  11.53  11.54  11.56  11.71  12.13  12.27  12.35
         12.54  12.55  12.68  12.76  12.87  12.97  13.01  13.33  13.49  13.63
         13.78  14.01  14.17  14.72  14.94  15.04  15.06  15.31  16.17  16.22
         16.25  16.64  16.71  17.36  17.45  17.50  17.62  17.87  18.42  18.61
         18.74  19.30  19.31  19.40  19.75  20.08  20.32  20.60  21.51  21.53
         21.72  22.81  22.85  23.08  23.57  24.55  25.18  26.01  26.79  27.65
         28.18  28.25  28.29  28.91  29.63  30.67  30.93  31.43  32.09  32.21
         32.53  33.04  33.27  33.95  34.70  34.92  35.35  35.87  36.68  36.90
         37.24  37.87  37.99  38.82  39.75  39.96  40.17  40.43  40.60  40.87
         41.43  41.43  42.38  43.06  43.85  44.07  44.14  45.34  45.42  45.79
         46.24  47.80  47.82  47.91  48.31  48.51  48.57  50.23  51.51  51.79
         55.65  55.75  56.09  57.15  57.27  57.29  59.84  61.26  62.40  63.86
         64.05  65.17  65.57  67.53  67.68  68.97  69.00  70.01  71.96  73.69
         74.29  74.56  75.44  78.61  79.10  80.57  82.87  84.44  88.35  88.50
         89.22  89.94  90.38  99.53 105.28 105.37 107.07 134.43
siesta: Fermi energy =      -6.551457 eV
siesta: PDOS info: 
siesta: e1, e2, sigma, nhist:   -20.00 eV   10.00 eV    0.10 eV   2500

siesta: Program's energy decomposition (eV):
siesta: Ebs     =      -998.057181
siesta: Eions   =      4807.522786
siesta: Ena     =       980.226948
siesta: Ekin    =      2035.270440
siesta: Enl     =      -264.571063
siesta: DEna    =       -64.787154
siesta: DUscf   =         7.446296
siesta: DUext   =         0.000000
siesta: Exc     =     -1010.586110
siesta: eta*DQ  =         0.000000
siesta: Emadel  =         0.000000
siesta: Emeta   =         0.000000
siesta: Emolmec =         0.000000
siesta: Ekinion =         0.000000
siesta: Eharris =     -3124.523433
siesta: Etot    =     -3124.523429
siesta: FreeEng =     -3124.523429

siesta: Final energy (eV):
siesta:  Band Struct. =    -998.057181
siesta:       Kinetic =    2035.270440
siesta:       Hartree =    8425.509364
siesta:    Ext. field =       0.000000
siesta:   Exch.-corr. =   -1010.586110
siesta:  Ion-electron =  -18743.197260
siesta:       Ion-ion =    6168.480137
siesta:       Ekinion =       0.000000
siesta:         Total =   -3124.523429

siesta: Atomic forces (eV/Ang):
siesta:      1   -0.000479    0.002042    0.001474
siesta:      2    0.000718   -0.001193    0.001186
siesta:      3    0.000326    0.000371    0.000696
siesta:      4   -0.000694   -0.001866   -0.000671
siesta:      5    0.000004   -0.000436    0.000021
siesta:      6   -0.000219    0.000080   -0.000190
siesta:      7    0.000241   -0.000374   -0.000024
siesta:      8    0.000488   -0.000447    0.000632
siesta:      9    0.000487   -0.000779    0.000224
siesta:     10    0.000022   -0.000315    0.000456
siesta:     11   -0.000228   -0.000152   -0.000079
siesta:     12   -0.000308   -0.000637    0.000082
siesta:     13   -0.000175   -0.002515   -0.002194
siesta:     14   -0.000290    0.001393   -0.000792
siesta:     15   -0.000297   -0.000897   -0.000081
siesta:     16   -0.000517    0.001884    0.000885
siesta:     17   -0.000292    0.000820   -0.000269
siesta:     18    0.000393    0.000603   -0.000366
siesta:     19    0.000052    0.001066   -0.000796
siesta:     20    0.000352    0.000708    0.001145
siesta: ----------------------------------------
siesta:    Tot   -0.000416   -0.000643    0.001338

siesta: Stress tensor (static) (eV/Ang**3):
siesta:     0.000000    0.000000    0.000001
siesta:     0.000000    0.000005   -0.000004
siesta:     0.000001   -0.000004    0.000004

siesta: Cell volume =       9375.000000 Ang**3

siesta: Pressure (static):
siesta:                Solid            Molecule  Units
siesta:          -0.00000003         -0.00000003  Ry/Bohr**3
siesta:          -0.00000290         -0.00000287  eV/Ang**3
siesta:          -0.00464024         -0.00459203  kBar
(Free)E+ p_basis*V_orbitals  =       -3115.625149
(Free)Eharris+ p_basis*V_orbitals  =       -3115.625151

siesta: Electric dipole (a.u.)  =    0.005677    0.001583    0.001575
siesta: Electric dipole (Debye) =    0.014429    0.004024    0.004004

* Maximum dynamic memory allocated : Node    0 =    85 MB
* Maximum dynamic memory allocated : Node    1 =    90 MB
* Maximum dynamic memory allocated : Node    2 =    90 MB
* Maximum dynamic memory allocated : Node    3 =    84 MB
* Maximum dynamic memory allocated : Node    4 =    85 MB
* Maximum dynamic memory allocated : Node    5 =   146 MB
* Maximum dynamic memory allocated : Node    6 =   150 MB
* Maximum dynamic memory allocated : Node    7 =    86 MB
* Maximum dynamic memory allocated : Node    8 =    85 MB
* Maximum dynamic memory allocated : Node    9 =    88 MB
* Maximum dynamic memory allocated : Node   10 =    88 MB
* Maximum dynamic memory allocated : Node   11 =    84 MB
* Maximum dynamic memory allocated : Node   12 =    84 MB
* Maximum dynamic memory allocated : Node   13 =    84 MB
* Maximum dynamic memory allocated : Node   14 =    84 MB
* Maximum dynamic memory allocated : Node   15 =    83 MB

* Maximum memory occured during redistribXZ                   

timer: CPU execution times:
timer:  Routine       Calls   Time/call    Tot.time        %
timer:  siesta            1  288494.330  288494.330   100.00
timer:  Setup             1       8.936       8.936     0.00
timer:  bands             1       0.010       0.010     0.00
timer:  writewave         1       0.018       0.018     0.00
timer:  KSV_init          1       0.002       0.002     0.00
timer:  IterMD          301     958.245  288431.605    99.98
timer:  hsparse         301       0.007       2.171     0.00
timer:  overlap         301       0.056      16.996     0.01
timer:  IterSCF        3836      65.940  252944.384    87.68
timer:  kinefsm         602       0.049      29.566     0.01
timer:  nlefsm          602       1.165     701.082     0.24
timer:  DHSCF          4137      65.664  271651.526    94.16
timer:  DHSCF1            1       5.346       5.346     0.00
timer:  DHSCF2          301      40.815   12285.300     4.26
timer:  REORD         33698       0.026     867.732     0.30
timer:  POISON         4438       4.839   21474.658     7.44
timer:  DHSCF3         4137      61.789  255620.342    88.60
timer:  rhoofd         4137       3.494   14454.896     5.01
timer:  cellXC         4137      15.625   64639.425    22.41
timer:  vmat           4137      12.955   53594.489    18.58
timer:  MolMec          602       0.000       0.059     0.00
timer:  diagon         3836       0.461    1769.515     0.61
timer:  r-eigvec       3836       0.455    1745.268     0.60
timer:  r-buildHS      3836       0.001       1.991     0.00
timer:  rdiag          3837       0.454    1743.506     0.60
timer:  rdiag1         3837       0.014      51.964     0.02
timer:  rdiag2         3837       0.058     222.240     0.08
timer:  rdiag3         3837       0.354    1358.730     0.47
timer:  rdiag4         3837       0.022      86.242     0.03
timer:  r-buildD       3836       0.006      21.447     0.01
timer:  DHSCF4          301      11.381    3425.816     1.19
timer:  dfscf           301      10.658    3208.161     1.11
timer:  overfsm         301       0.041      12.392     0.00
timer:  pdos              1       5.609       5.609     0.00
timer:  optical           1      47.518      47.518     0.02
  

elaps: ELAPSED times:
elaps:  Routine       Calls   Time/call    Tot.time        %
elaps:  siesta            1   18083.065   18083.065   100.00
elaps:  Setup             1       0.565       0.565     0.00
elaps:  bands             1       0.001       0.001     0.00
elaps:  writewave         1       0.001       0.001     0.00
elaps:  KSV_init          1       0.000       0.000     0.00
elaps:  IterMD          301      60.063   18079.113    99.98
elaps:  hsparse         301       0.000       0.129     0.00
elaps:  overlap         301       0.003       0.937     0.01
elaps:  IterSCF        3836       4.134   15857.576    87.69
elaps:  kinefsm         602       0.003       1.525     0.01
elaps:  nlefsm          602       0.056      33.551     0.19
elaps:  DHSCF          4137       4.085   16900.657    93.46
elaps:  DHSCF1            1       0.335       0.335     0.00
elaps:  DHSCF2          301       2.559     770.114     4.26
elaps:  REORD         33698       0.002      54.550     0.30
elaps:  POISON         4438       0.304    1351.243     7.47
elaps:  DHSCF3         4137       3.872   16018.173    88.58
elaps:  rhoofd         4137       0.003      14.443     0.08
elaps:  cellXC         4137       0.978    4046.557    22.38
elaps:  vmat           4137       0.812    3357.629    18.57
elaps:  MolMec          602       0.000       0.005     0.00
elaps:  diagon         3836       0.029     110.843     0.61
elaps:  r-eigvec       3836       0.028     109.269     0.60
elaps:  r-buildHS      3836       0.000       0.147     0.00
elaps:  rdiag          3837       0.028     109.128     0.60
elaps:  rdiag1         3837       0.001       3.332     0.02
elaps:  rdiag2         3837       0.004      13.891     0.08
elaps:  rdiag3         3837       0.022      85.212     0.47
elaps:  rdiag4         3837       0.001       5.397     0.03
elaps:  r-buildD       3836       0.000       1.382     0.01
elaps:  DHSCF4          301       0.303      91.138     0.50
elaps:  dfscf           301       0.299      90.059     0.50
elaps:  overfsm         301       0.002       0.595     0.00
elaps:  pdos              1       3.325       3.325     0.02
elaps:  optical           1       0.000       0.000     0.00
  
>> End of run:   6-NOV-2017  19:49:41
